M 1.00000 0 (101.00, 500.00, 0.00), (1200.00, 500.00), 15.00
M 1.00000 1 (203.00, 499.00, 0.00), (1175.00, 500.00), 15.00
M 1.00000 2 (300.00, 501.00, 0.00), (1150.00, 500.00), 15.00
M 1.00000 3 (395.00, 500.00, 0.00), (1125.00, 500.00), 15.00
M 1.00000 4 (1102.00, 77.00, 0.00), (50.00, 75.00), 15.00
M 1.00000 5 (1004.00, 78.00, 0.00), (75.00, 75.00), 15.00
M 1.00000 6 (951.00, 77.00, 0.00), (100.00, 75.00), 15.00
M 1.00000 7 (876.00, 77.00, 0.00), (125.00, 75.00), 15.00
M 1.00000 8 (603.00, 129.00, 0.00), (1200.00, 129.00), 15.00
M 1.00000 9 (601.00, 466.00, 0.00), (1200.00, 466.00), 13.00
M 1.00000 10 (696.00, 265.00, 0.00), (50.00, 265.00), 12.00
M 1.00000 11 (491.00, 323.00, 0.00), (1200.00, 323.00), 13.00
M 1.00000 13 (541.00, 293.00, 0.00), (1250.00, 293.00), 20.00
s 4.000000000 _8_ AGT  --- 0 tcp 40 [0 0 0 0] ------- [8:0 9:0 32 0] [0 0] 0 0
r 4.000000000 _8_ RTR  --- 0 tcp 40 [0 0 0 0] ------- [8:0 9:0 32 0] [0 0] 0 0
s 4.000000000 _8_ RTR  --- 0 AODV 48 [0 0 0 0] ------- [8:255 -1:255 30 0] [0x2 1 1 [9 0] [8 4]] (REQUEST)
s 4.000115000 _8_ MAC  --- 0 AODV 106 [0 ffffffff 8 800] ------- [8:255 -1:255 30 0] [0x2 1 1 [9 0] [8 4]] (REQUEST)
r 4.000963455 _10_ MAC  --- 0 AODV 48 [0 ffffffff 8 800] ------- [8:255 -1:255 30 0] [0x2 1 1 [9 0] [8 4]] (REQUEST)
r 4.000963523 _12_ MAC  --- 0 AODV 48 [0 ffffffff 8 800] ------- [8:255 -1:255 30 0] [0x2 1 1 [9 0] [8 4]] (REQUEST)
r 4.000963569 _13_ MAC  --- 0 AODV 48 [0 ffffffff 8 800] ------- [8:255 -1:255 30 0] [0x2 1 1 [9 0] [8 4]] (REQUEST)
r 4.000963634 _7_ MAC  --- 0 AODV 48 [0 ffffffff 8 800] ------- [8:255 -1:255 30 0] [0x2 1 1 [9 0] [8 4]] (REQUEST)
r 4.000963757 _11_ MAC  --- 0 AODV 48 [0 ffffffff 8 800] ------- [8:255 -1:255 30 0] [0x2 1 1 [9 0] [8 4]] (REQUEST)
r 4.000988455 _10_ RTR  --- 0 AODV 48 [0 ffffffff 8 800] ------- [8:255 -1:255 30 0] [0x2 1 1 [9 0] [8 4]] (REQUEST)
r 4.000988523 _12_ RTR  --- 0 AODV 48 [0 ffffffff 8 800] ------- [8:255 -1:255 30 0] [0x2 1 1 [9 0] [8 4]] (REQUEST)
r 4.000988569 _13_ RTR  --- 0 AODV 48 [0 ffffffff 8 800] ------- [8:255 -1:255 30 0] [0x2 1 1 [9 0] [8 4]] (REQUEST)
r 4.000988634 _7_ RTR  --- 0 AODV 48 [0 ffffffff 8 800] ------- [8:255 -1:255 30 0] [0x2 1 1 [9 0] [8 4]] (REQUEST)
r 4.000988757 _11_ RTR  --- 0 AODV 48 [0 ffffffff 8 800] ------- [8:255 -1:255 30 0] [0x2 1 1 [9 0] [8 4]] (REQUEST)
s 4.001869682 _10_ RTR  --- 0 AODV 48 [0 ffffffff 8 800] ------- [10:255 -1:255 29 0] [0x2 2 1 [9 0] [8 4]] (REQUEST)
s 4.002184682 _10_ MAC  --- 0 AODV 106 [0 ffffffff a 800] ------- [10:255 -1:255 29 0] [0x2 2 1 [9 0] [8 4]] (REQUEST)
r 4.003032899 _13_ MAC  --- 0 AODV 48 [0 ffffffff a 800] ------- [10:255 -1:255 29 0] [0x2 2 1 [9 0] [8 4]] (REQUEST)
r 4.003032902 _12_ MAC  --- 0 AODV 48 [0 ffffffff a 800] ------- [10:255 -1:255 29 0] [0x2 2 1 [9 0] [8 4]] (REQUEST)
r 4.003033137 _8_ MAC  --- 0 AODV 48 [0 ffffffff a 800] ------- [10:255 -1:255 29 0] [0x2 2 1 [9 0] [8 4]] (REQUEST)
r 4.003033156 _11_ MAC  --- 0 AODV 48 [0 ffffffff a 800] ------- [10:255 -1:255 29 0] [0x2 2 1 [9 0] [8 4]] (REQUEST)
r 4.003033355 _9_ MAC  --- 0 AODV 48 [0 ffffffff a 800] ------- [10:255 -1:255 29 0] [0x2 2 1 [9 0] [8 4]] (REQUEST)
r 4.003057899 _13_ RTR  --- 0 AODV 48 [0 ffffffff a 800] ------- [10:255 -1:255 29 0] [0x2 2 1 [9 0] [8 4]] (REQUEST)
r 4.003057902 _12_ RTR  --- 0 AODV 48 [0 ffffffff a 800] ------- [10:255 -1:255 29 0] [0x2 2 1 [9 0] [8 4]] (REQUEST)
r 4.003058137 _8_ RTR  --- 0 AODV 48 [0 ffffffff a 800] ------- [10:255 -1:255 29 0] [0x2 2 1 [9 0] [8 4]] (REQUEST)
r 4.003058156 _11_ RTR  --- 0 AODV 48 [0 ffffffff a 800] ------- [10:255 -1:255 29 0] [0x2 2 1 [9 0] [8 4]] (REQUEST)
r 4.003058355 _9_ RTR  --- 0 AODV 48 [0 ffffffff a 800] ------- [10:255 -1:255 29 0] [0x2 2 1 [9 0] [8 4]] (REQUEST)
s 4.003058355 _9_ RTR  --- 0 AODV 44 [0 0 0 0] ------- [9:255 8:255 30 10] [0x4 1 [9 4] 10.000000] (REPLY)
s 4.003373355 _9_ MAC  --- 0 ARP 86 [0 ffffffff 9 806] ------- [REQUEST 9/9 0/10]
r 4.004061946 _13_ MAC  --- 0 ARP 28 [0 ffffffff 9 806] ------- [REQUEST 9/9 0/10]
r 4.004061956 _11_ MAC  --- 0 ARP 28 [0 ffffffff 9 806] ------- [REQUEST 9/9 0/10]
r 4.004062028 _10_ MAC  --- 0 ARP 28 [0 ffffffff 9 806] ------- [REQUEST 9/9 0/10]
r 4.004062031 _3_ MAC  --- 0 ARP 28 [0 ffffffff 9 806] ------- [REQUEST 9/9 0/10]
r 4.004062084 _12_ MAC  --- 0 ARP 28 [0 ffffffff 9 806] ------- [REQUEST 9/9 0/10]
s 4.004118252 _7_ RTR  --- 0 AODV 48 [0 ffffffff 8 800] ------- [7:255 -1:255 29 0] [0x2 2 1 [9 0] [8 4]] (REQUEST)
s 4.004192028 _10_ MAC  --- 0 RTS 44 [52e 9 a 0] 
r 4.004544702 _9_ MAC  --- 0 RTS 44 [52e 9 a 0] 
s 4.004554702 _9_ MAC  --- 0 CTS 38 [3f4 a 0 0] 
r 4.004859375 _10_ MAC  --- 0 CTS 38 [3f4 a 0 0] 
s 4.004869375 _10_ MAC  --- 0 ARP 86 [13a 9 a 806] ------- [REPLY 10/10 9/9]
s 4.005400256 _12_ RTR  --- 0 AODV 48 [0 ffffffff 8 800] ------- [12:255 -1:255 29 0] [0x2 2 1 [9 0] [8 4]] (REQUEST)
r 4.005558048 _9_ MAC  --- 0 ARP 28 [13a 9 a 806] ------- [REPLY 10/10 9/9]
s 4.005568048 _9_ MAC  --- 0 ACK 38 [0 a 0 0] 
r 4.005872721 _10_ MAC  --- 0 ACK 38 [0 a 0 0] 
s 4.006082048 _9_ MAC  --- 0 RTS 44 [5ae a 9 0] 
r 4.006434721 _10_ MAC  --- 0 RTS 44 [5ae a 9 0] 
s 4.006444721 _10_ MAC  --- 0 CTS 38 [474 9 0 0] 
r 4.006749395 _9_ MAC  --- 0 CTS 38 [474 9 0 0] 
s 4.006759395 _9_ MAC  --- 0 AODV 102 [13a a 9 800] ------- [9:255 8:255 30 10] [0x4 1 [9 4] 10.000000] (REPLY)
r 4.007576068 _10_ MAC  --- 0 AODV 44 [13a a 9 800] ------- [9:255 8:255 30 10] [0x4 1 [9 4] 10.000000] (REPLY)
s 4.007586068 _10_ MAC  --- 0 ACK 38 [0 9 0 0] 
r 4.007601068 _10_ RTR  --- 0 AODV 44 [13a a 9 800] ------- [9:255 8:255 30 10] [0x4 1 [9 4] 10.000000] (REPLY)
f 4.007601068 _10_ RTR  --- 0 AODV 44 [13a a 9 800] ------- [9:255 8:255 29 8] [0x4 2 [9 4] 10.000000] (REPLY)
r 4.007890741 _9_ MAC  --- 0 ACK 38 [0 9 0 0] 
s 4.007960068 _10_ MAC  --- 0 ARP 86 [0 ffffffff a 806] ------- [REQUEST 10/10 0/8]
r 4.008648285 _13_ MAC  --- 0 ARP 28 [0 ffffffff a 806] ------- [REQUEST 10/10 0/8]
r 4.008648288 _12_ MAC  --- 0 ARP 28 [0 ffffffff a 806] ------- [REQUEST 10/10 0/8]
r 4.008648523 _8_ MAC  --- 0 ARP 28 [0 ffffffff a 806] ------- [REQUEST 10/10 0/8]
r 4.008648542 _11_ MAC  --- 0 ARP 28 [0 ffffffff a 806] ------- [REQUEST 10/10 0/8]
r 4.008648741 _9_ MAC  --- 0 ARP 28 [0 ffffffff a 806] ------- [REQUEST 10/10 0/8]
s 4.008863523 _8_ MAC  --- 0 RTS 44 [52e a 8 0] 
s 4.008980123 _13_ RTR  --- 0 AODV 48 [0 ffffffff 8 800] ------- [13:255 -1:255 29 0] [0x2 2 1 [9 0] [8 4]] (REQUEST)
s 4.009153517 _11_ RTR  --- 0 AODV 48 [0 ffffffff 8 800] ------- [11:255 -1:255 29 0] [0x2 2 1 [9 0] [8 4]] (REQUEST)
r 4.009215978 _10_ MAC  --- 0 RTS 44 [52e a 8 0] 
s 4.009225978 _10_ MAC  --- 0 CTS 38 [3f4 8 0 0] 
r 4.009530433 _8_ MAC  --- 0 CTS 38 [3f4 8 0 0] 
s 4.009540433 _8_ MAC  --- 0 ARP 86 [13a a 8 806] ------- [REPLY 8/8 10/10]
r 4.010228888 _10_ MAC  --- 0 ARP 28 [13a a 8 806] ------- [REPLY 8/8 10/10]
s 4.010238888 _10_ MAC  --- 0 ACK 38 [0 8 0 0] 
r 4.010543343 _8_ MAC  --- 0 ACK 38 [0 8 0 0] 
s 4.010672888 _10_ MAC  --- 0 RTS 44 [5ae 8 a 0] 
r 4.011025343 _8_ MAC  --- 0 RTS 44 [5ae 8 a 0] 
s 4.011035343 _8_ MAC  --- 0 CTS 38 [474 a 0 0] 
r 4.011339798 _10_ MAC  --- 0 CTS 38 [474 a 0 0] 
s 4.011349798 _10_ MAC  --- 0 AODV 102 [13a 8 a 800] ------- [9:255 8:255 29 8] [0x4 2 [9 4] 10.000000] (REPLY)
r 4.012166253 _8_ MAC  --- 0 AODV 44 [13a 8 a 800] ------- [9:255 8:255 29 8] [0x4 2 [9 4] 10.000000] (REPLY)
s 4.012176253 _8_ MAC  --- 0 ACK 38 [0 a 0 0] 
r 4.012191253 _8_ RTR  --- 0 AODV 44 [13a 8 a 800] ------- [9:255 8:255 29 8] [0x4 2 [9 4] 10.000000] (REPLY)
s 4.012191253 _8_ RTR  --- 0 tcp 40 [0 0 0 0] ------- [8:0 9:0 30 10] [0 0] 0 0
r 4.012480708 _10_ MAC  --- 0 ACK 38 [0 a 0 0] 
s 4.012620645 _7_ MAC  --- 0 AODV 106 [0 ffffffff 7 800] ------- [7:255 -1:255 29 0] [0x2 2 1 [9 0] [8 4]] (REQUEST)
r 4.013468895 _6_ MAC  --- 0 AODV 48 [0 ffffffff 7 800] ------- [7:255 -1:255 29 0] [0x2 2 1 [9 0] [8 4]] (REQUEST)
r 4.013469072 _5_ MAC  --- 0 AODV 48 [0 ffffffff 7 800] ------- [7:255 -1:255 29 0] [0x2 2 1 [9 0] [8 4]] (REQUEST)
r 4.013469278 _8_ MAC  --- 0 AODV 48 [0 ffffffff 7 800] ------- [7:255 -1:255 29 0] [0x2 2 1 [9 0] [8 4]] (REQUEST)
r 4.013469363 _12_ MAC  --- 0 AODV 48 [0 ffffffff 7 800] ------- [7:255 -1:255 29 0] [0x2 2 1 [9 0] [8 4]] (REQUEST)
r 4.013469399 _4_ MAC  --- 0 AODV 48 [0 ffffffff 7 800] ------- [7:255 -1:255 29 0] [0x2 2 1 [9 0] [8 4]] (REQUEST)
r 4.013493895 _6_ RTR  --- 0 AODV 48 [0 ffffffff 7 800] ------- [7:255 -1:255 29 0] [0x2 2 1 [9 0] [8 4]] (REQUEST)
r 4.013494072 _5_ RTR  --- 0 AODV 48 [0 ffffffff 7 800] ------- [7:255 -1:255 29 0] [0x2 2 1 [9 0] [8 4]] (REQUEST)
r 4.013494278 _8_ RTR  --- 0 AODV 48 [0 ffffffff 7 800] ------- [7:255 -1:255 29 0] [0x2 2 1 [9 0] [8 4]] (REQUEST)
r 4.013494363 _12_ RTR  --- 0 AODV 48 [0 ffffffff 7 800] ------- [7:255 -1:255 29 0] [0x2 2 1 [9 0] [8 4]] (REQUEST)
r 4.013494399 _4_ RTR  --- 0 AODV 48 [0 ffffffff 7 800] ------- [7:255 -1:255 29 0] [0x2 2 1 [9 0] [8 4]] (REQUEST)
s 4.013579363 _12_ MAC  --- 0 AODV 106 [0 ffffffff c 800] ------- [12:255 -1:255 29 0] [0x2 2 1 [9 0] [8 4]] (REQUEST)
r 4.014427584 _10_ MAC  --- 0 AODV 48 [0 ffffffff c 800] ------- [12:255 -1:255 29 0] [0x2 2 1 [9 0] [8 4]] (REQUEST)
r 4.014427789 _13_ MAC  --- 0 AODV 48 [0 ffffffff c 800] ------- [12:255 -1:255 29 0] [0x2 2 1 [9 0] [8 4]] (REQUEST)
r 4.014427886 _8_ MAC  --- 0 AODV 48 [0 ffffffff c 800] ------- [12:255 -1:255 29 0] [0x2 2 1 [9 0] [8 4]] (REQUEST)
r 4.014428044 _11_ MAC  --- 0 AODV 48 [0 ffffffff c 800] ------- [12:255 -1:255 29 0] [0x2 2 1 [9 0] [8 4]] (REQUEST)
r 4.014428081 _7_ MAC  --- 0 AODV 48 [0 ffffffff c 800] ------- [12:255 -1:255 29 0] [0x2 2 1 [9 0] [8 4]] (REQUEST)
r 4.014428092 _9_ MAC  --- 0 AODV 48 [0 ffffffff c 800] ------- [12:255 -1:255 29 0] [0x2 2 1 [9 0] [8 4]] (REQUEST)
r 4.014452584 _10_ RTR  --- 0 AODV 48 [0 ffffffff c 800] ------- [12:255 -1:255 29 0] [0x2 2 1 [9 0] [8 4]] (REQUEST)
r 4.014452789 _13_ RTR  --- 0 AODV 48 [0 ffffffff c 800] ------- [12:255 -1:255 29 0] [0x2 2 1 [9 0] [8 4]] (REQUEST)
r 4.014452886 _8_ RTR  --- 0 AODV 48 [0 ffffffff c 800] ------- [12:255 -1:255 29 0] [0x2 2 1 [9 0] [8 4]] (REQUEST)
r 4.014453044 _11_ RTR  --- 0 AODV 48 [0 ffffffff c 800] ------- [12:255 -1:255 29 0] [0x2 2 1 [9 0] [8 4]] (REQUEST)
r 4.014453081 _7_ RTR  --- 0 AODV 48 [0 ffffffff c 800] ------- [12:255 -1:255 29 0] [0x2 2 1 [9 0] [8 4]] (REQUEST)
r 4.014453092 _9_ RTR  --- 0 AODV 48 [0 ffffffff c 800] ------- [12:255 -1:255 29 0] [0x2 2 1 [9 0] [8 4]] (REQUEST)
s 4.014597886 _8_ MAC  --- 0 RTS 44 [58e a 8 0] 
r 4.014950340 _10_ MAC  --- 0 RTS 44 [58e a 8 0] 
s 4.014960340 _10_ MAC  --- 0 CTS 38 [454 8 0 0] 
r 4.015264795 _8_ MAC  --- 0 CTS 38 [454 8 0 0] 
s 4.015274795 _8_ MAC  --- 0 tcp 98 [13a a 8 800] ------- [8:0 9:0 30 10] [0 0] 0 0
r 4.016059250 _10_ MAC  --- 0 tcp 40 [13a a 8 800] ------- [8:0 9:0 30 10] [0 0] 1 0
s 4.016069250 _10_ MAC  --- 0 ACK 38 [0 8 0 0] 
r 4.016084250 _10_ RTR  --- 0 tcp 40 [13a a 8 800] ------- [8:0 9:0 30 10] [0 0] 1 0
f 4.016084250 _10_ RTR  --- 0 tcp 40 [13a a 8 800] ------- [8:0 9:0 29 9] [0 0] 1 0
r 4.016373705 _8_ MAC  --- 0 ACK 38 [0 8 0 0] 
s 4.016503724 _11_ MAC  --- 0 AODV 106 [0 ffffffff b 800] ------- [11:255 -1:255 29 0] [0x2 2 1 [9 0] [8 4]] (REQUEST)
r 4.017351981 _13_ MAC  --- 0 AODV 48 [0 ffffffff b 800] ------- [11:255 -1:255 29 0] [0x2 2 1 [9 0] [8 4]] (REQUEST)
r 4.017352197 _10_ MAC  --- 0 AODV 48 [0 ffffffff b 800] ------- [11:255 -1:255 29 0] [0x2 2 1 [9 0] [8 4]] (REQUEST)
r 4.017352325 _9_ MAC  --- 0 AODV 48 [0 ffffffff b 800] ------- [11:255 -1:255 29 0] [0x2 2 1 [9 0] [8 4]] (REQUEST)
r 4.017352386 _3_ MAC  --- 0 AODV 48 [0 ffffffff b 800] ------- [11:255 -1:255 29 0] [0x2 2 1 [9 0] [8 4]] (REQUEST)
r 4.017352404 _12_ MAC  --- 0 AODV 48 [0 ffffffff b 800] ------- [11:255 -1:255 29 0] [0x2 2 1 [9 0] [8 4]] (REQUEST)
r 4.017352481 _8_ MAC  --- 0 AODV 48 [0 ffffffff b 800] ------- [11:255 -1:255 29 0] [0x2 2 1 [9 0] [8 4]] (REQUEST)
r 4.017376981 _13_ RTR  --- 0 AODV 48 [0 ffffffff b 800] ------- [11:255 -1:255 29 0] [0x2 2 1 [9 0] [8 4]] (REQUEST)
r 4.017377197 _10_ RTR  --- 0 AODV 48 [0 ffffffff b 800] ------- [11:255 -1:255 29 0] [0x2 2 1 [9 0] [8 4]] (REQUEST)
r 4.017377325 _9_ RTR  --- 0 AODV 48 [0 ffffffff b 800] ------- [11:255 -1:255 29 0] [0x2 2 1 [9 0] [8 4]] (REQUEST)
r 4.017377386 _3_ RTR  --- 0 AODV 48 [0 ffffffff b 800] ------- [11:255 -1:255 29 0] [0x2 2 1 [9 0] [8 4]] (REQUEST)
r 4.017377404 _12_ RTR  --- 0 AODV 48 [0 ffffffff b 800] ------- [11:255 -1:255 29 0] [0x2 2 1 [9 0] [8 4]] (REQUEST)
r 4.017377481 _8_ RTR  --- 0 AODV 48 [0 ffffffff b 800] ------- [11:255 -1:255 29 0] [0x2 2 1 [9 0] [8 4]] (REQUEST)
s 4.017541981 _13_ MAC  --- 0 AODV 106 [0 ffffffff d 800] ------- [13:255 -1:255 29 0] [0x2 2 1 [9 0] [8 4]] (REQUEST)
s 4.017580752 _6_ RTR  --- 0 AODV 48 [0 ffffffff 7 800] ------- [6:255 -1:255 28 0] [0x2 3 1 [9 0] [8 4]] (REQUEST)
s 4.018155558 _4_ RTR  --- 0 AODV 48 [0 ffffffff 7 800] ------- [4:255 -1:255 28 0] [0x2 3 1 [9 0] [8 4]] (REQUEST)
r 4.018390197 _10_ MAC  --- 0 AODV 48 [0 ffffffff d 800] ------- [13:255 -1:255 29 0] [0x2 2 1 [9 0] [8 4]] (REQUEST)
r 4.018390238 _11_ MAC  --- 0 AODV 48 [0 ffffffff d 800] ------- [13:255 -1:255 29 0] [0x2 2 1 [9 0] [8 4]] (REQUEST)
r 4.018390407 _12_ MAC  --- 0 AODV 48 [0 ffffffff d 800] ------- [13:255 -1:255 29 0] [0x2 2 1 [9 0] [8 4]] (REQUEST)
r 4.018390550 _8_ MAC  --- 0 AODV 48 [0 ffffffff d 800] ------- [13:255 -1:255 29 0] [0x2 2 1 [9 0] [8 4]] (REQUEST)
r 4.018390572 _9_ MAC  --- 0 AODV 48 [0 ffffffff d 800] ------- [13:255 -1:255 29 0] [0x2 2 1 [9 0] [8 4]] (REQUEST)
r 4.018415197 _10_ RTR  --- 0 AODV 48 [0 ffffffff d 800] ------- [13:255 -1:255 29 0] [0x2 2 1 [9 0] [8 4]] (REQUEST)
r 4.018415238 _11_ RTR  --- 0 AODV 48 [0 ffffffff d 800] ------- [13:255 -1:255 29 0] [0x2 2 1 [9 0] [8 4]] (REQUEST)
r 4.018415407 _12_ RTR  --- 0 AODV 48 [0 ffffffff d 800] ------- [13:255 -1:255 29 0] [0x2 2 1 [9 0] [8 4]] (REQUEST)
r 4.018415550 _8_ RTR  --- 0 AODV 48 [0 ffffffff d 800] ------- [13:255 -1:255 29 0] [0x2 2 1 [9 0] [8 4]] (REQUEST)
r 4.018415572 _9_ RTR  --- 0 AODV 48 [0 ffffffff d 800] ------- [13:255 -1:255 29 0] [0x2 2 1 [9 0] [8 4]] (REQUEST)
s 4.018680560 _5_ RTR  --- 0 AODV 48 [0 ffffffff 7 800] ------- [5:255 -1:255 28 0] [0x2 3 1 [9 0] [8 4]] (REQUEST)
s 4.018800197 _10_ MAC  --- 0 RTS 44 [58e 9 a 0] 
r 4.019152870 _9_ MAC  --- 0 RTS 44 [58e 9 a 0] 
s 4.019162870 _9_ MAC  --- 0 CTS 38 [454 a 0 0] 
r 4.019467543 _10_ MAC  --- 0 CTS 38 [454 a 0 0] 
s 4.019477543 _10_ MAC  --- 0 tcp 98 [13a 9 a 800] ------- [8:0 9:0 29 9] [0 0] 1 0
s 4.019789642 _3_ RTR  --- 0 AODV 48 [0 ffffffff b 800] ------- [3:255 -1:255 28 0] [0x2 3 1 [9 0] [8 4]] (REQUEST)
r 4.020262216 _9_ MAC  --- 0 tcp 40 [13a 9 a 800] ------- [8:0 9:0 29 9] [0 0] 2 0
s 4.020272216 _9_ MAC  --- 0 ACK 38 [0 a 0 0] 
r 4.020287216 _9_ AGT  --- 0 tcp 40 [13a 9 a 800] ------- [8:0 9:0 29 9] [0 0] 2 0
s 4.020287216 _9_ AGT  --- 1 ack 40 [0 0 0 0] ------- [9:0 8:0 32 0] [0 0] 0 0
r 4.020287216 _9_ RTR  --- 1 ack 40 [0 0 0 0] ------- [9:0 8:0 32 0] [0 0] 0 0
s 4.020287216 _9_ RTR  --- 1 ack 40 [0 0 0 0] ------- [9:0 8:0 30 10] [0 0] 0 0
r 4.020576890 _10_ MAC  --- 0 ACK 38 [0 a 0 0] 
s 4.020756615 _3_ MAC  --- 0 AODV 106 [0 ffffffff 3 800] ------- [3:255 -1:255 28 0] [0x2 3 1 [9 0] [8 4]] (REQUEST)
s 4.020977007 _4_ MAC  --- 0 AODV 106 [0 ffffffff 4 800] ------- [4:255 -1:255 28 0] [0x2 3 1 [9 0] [8 4]] (REQUEST)
r 4.021604932 _2_ MAC  --- 0 AODV 48 [0 ffffffff 3 800] ------- [3:255 -1:255 28 0] [0x2 3 1 [9 0] [8 4]] (REQUEST)
r 4.021605255 _1_ MAC  --- 0 AODV 48 [0 ffffffff 3 800] ------- [3:255 -1:255 28 0] [0x2 3 1 [9 0] [8 4]] (REQUEST)
r 4.021605277 _11_ MAC  --- 0 AODV 48 [0 ffffffff 3 800] ------- [3:255 -1:255 28 0] [0x2 3 1 [9 0] [8 4]] (REQUEST)
r 4.021605291 _9_ MAC  --- 0 AODV 48 [0 ffffffff 3 800] ------- [3:255 -1:255 28 0] [0x2 3 1 [9 0] [8 4]] (REQUEST)
r 4.021629932 _2_ RTR  --- 0 AODV 48 [0 ffffffff 3 800] ------- [3:255 -1:255 28 0] [0x2 3 1 [9 0] [8 4]] (REQUEST)
r 4.021630255 _1_ RTR  --- 0 AODV 48 [0 ffffffff 3 800] ------- [3:255 -1:255 28 0] [0x2 3 1 [9 0] [8 4]] (REQUEST)
r 4.021630277 _11_ RTR  --- 0 AODV 48 [0 ffffffff 3 800] ------- [3:255 -1:255 28 0] [0x2 3 1 [9 0] [8 4]] (REQUEST)
r 4.021630291 _9_ RTR  --- 0 AODV 48 [0 ffffffff 3 800] ------- [3:255 -1:255 28 0] [0x2 3 1 [9 0] [8 4]] (REQUEST)
s 4.021815291 _9_ MAC  --- 0 RTS 44 [58e a 9 0] 
r 4.021825334 _5_ MAC  --- 0 AODV 48 [0 ffffffff 4 800] ------- [4:255 -1:255 28 0] [0x2 3 1 [9 0] [8 4]] (REQUEST)
r 4.021825511 _6_ MAC  --- 0 AODV 48 [0 ffffffff 4 800] ------- [4:255 -1:255 28 0] [0x2 3 1 [9 0] [8 4]] (REQUEST)
r 4.021825761 _7_ MAC  --- 0 AODV 48 [0 ffffffff 4 800] ------- [4:255 -1:255 28 0] [0x2 3 1 [9 0] [8 4]] (REQUEST)
r 4.021850334 _5_ RTR  --- 0 AODV 48 [0 ffffffff 4 800] ------- [4:255 -1:255 28 0] [0x2 3 1 [9 0] [8 4]] (REQUEST)
r 4.021850511 _6_ RTR  --- 0 AODV 48 [0 ffffffff 4 800] ------- [4:255 -1:255 28 0] [0x2 3 1 [9 0] [8 4]] (REQUEST)
r 4.021850761 _7_ RTR  --- 0 AODV 48 [0 ffffffff 4 800] ------- [4:255 -1:255 28 0] [0x2 3 1 [9 0] [8 4]] (REQUEST)
D 4.022167964 _10_ MAC  COL 0 RTS 44 [58e a 9 0] 
s 4.022622861 _6_ MAC  --- 0 AODV 106 [0 ffffffff 6 800] ------- [6:255 -1:255 28 0] [0x2 3 1 [9 0] [8 4]] (REQUEST)
r 4.023471038 _5_ MAC  --- 0 AODV 48 [0 ffffffff 6 800] ------- [6:255 -1:255 28 0] [0x2 3 1 [9 0] [8 4]] (REQUEST)
r 4.023471111 _7_ MAC  --- 0 AODV 48 [0 ffffffff 6 800] ------- [6:255 -1:255 28 0] [0x2 3 1 [9 0] [8 4]] (REQUEST)
r 4.023471365 _4_ MAC  --- 0 AODV 48 [0 ffffffff 6 800] ------- [6:255 -1:255 28 0] [0x2 3 1 [9 0] [8 4]] (REQUEST)
r 4.023496038 _5_ RTR  --- 0 AODV 48 [0 ffffffff 6 800] ------- [6:255 -1:255 28 0] [0x2 3 1 [9 0] [8 4]] (REQUEST)
r 4.023496111 _7_ RTR  --- 0 AODV 48 [0 ffffffff 6 800] ------- [6:255 -1:255 28 0] [0x2 3 1 [9 0] [8 4]] (REQUEST)
r 4.023496365 _4_ RTR  --- 0 AODV 48 [0 ffffffff 6 800] ------- [6:255 -1:255 28 0] [0x2 3 1 [9 0] [8 4]] (REQUEST)
s 4.023621038 _5_ MAC  --- 0 AODV 106 [0 ffffffff 5 800] ------- [5:255 -1:255 28 0] [0x2 3 1 [9 0] [8 4]] (REQUEST)
r 4.024469215 _6_ MAC  --- 0 AODV 48 [0 ffffffff 5 800] ------- [5:255 -1:255 28 0] [0x2 3 1 [9 0] [8 4]] (REQUEST)
r 4.024469365 _4_ MAC  --- 0 AODV 48 [0 ffffffff 5 800] ------- [5:255 -1:255 28 0] [0x2 3 1 [9 0] [8 4]] (REQUEST)
r 4.024469465 _7_ MAC  --- 0 AODV 48 [0 ffffffff 5 800] ------- [5:255 -1:255 28 0] [0x2 3 1 [9 0] [8 4]] (REQUEST)
r 4.024494215 _6_ RTR  --- 0 AODV 48 [0 ffffffff 5 800] ------- [5:255 -1:255 28 0] [0x2 3 1 [9 0] [8 4]] (REQUEST)
r 4.024494365 _4_ RTR  --- 0 AODV 48 [0 ffffffff 5 800] ------- [5:255 -1:255 28 0] [0x2 3 1 [9 0] [8 4]] (REQUEST)
r 4.024494465 _7_ RTR  --- 0 AODV 48 [0 ffffffff 5 800] ------- [5:255 -1:255 28 0] [0x2 3 1 [9 0] [8 4]] (REQUEST)
s 4.025004711 _9_ MAC  --- 0 RTS 44 [58e a 9 0] 
r 4.025357384 _10_ MAC  --- 0 RTS 44 [58e a 9 0] 
s 4.025367384 _10_ MAC  --- 0 CTS 38 [454 9 0 0] 
r 4.025672057 _9_ MAC  --- 0 CTS 38 [454 9 0 0] 
s 4.025682057 _9_ MAC  --- 1 ack 98 [13a a 9 800] ------- [9:0 8:0 30 10] [0 0] 0 0
r 4.026466731 _10_ MAC  --- 1 ack 40 [13a a 9 800] ------- [9:0 8:0 30 10] [0 0] 1 0
s 4.026476731 _10_ MAC  --- 0 ACK 38 [0 9 0 0] 
r 4.026491731 _10_ RTR  --- 1 ack 40 [13a a 9 800] ------- [9:0 8:0 30 10] [0 0] 1 0
f 4.026491731 _10_ RTR  --- 1 ack 40 [13a a 9 800] ------- [9:0 8:0 29 8] [0 0] 1 0
r 4.026781404 _9_ MAC  --- 0 ACK 38 [0 9 0 0] 
s 4.027170731 _10_ MAC  --- 0 RTS 44 [58e 8 a 0] 
r 4.027523185 _8_ MAC  --- 0 RTS 44 [58e 8 a 0] 
s 4.027533185 _8_ MAC  --- 0 CTS 38 [454 a 0 0] 
r 4.027837640 _10_ MAC  --- 0 CTS 38 [454 a 0 0] 
s 4.027847640 _10_ MAC  --- 1 ack 98 [13a 8 a 800] ------- [9:0 8:0 29 8] [0 0] 1 0
r 4.028632095 _8_ MAC  --- 1 ack 40 [13a 8 a 800] ------- [9:0 8:0 29 8] [0 0] 2 0
s 4.028642095 _8_ MAC  --- 0 ACK 38 [0 a 0 0] 
r 4.028657095 _8_ AGT  --- 1 ack 40 [13a 8 a 800] ------- [9:0 8:0 29 8] [0 0] 2 0
s 4.028657095 _8_ AGT  --- 2 tcp 1740 [0 0 0 0] ------- [8:0 9:0 32 0] [1 0] 0 0
r 4.028657095 _8_ RTR  --- 2 tcp 1740 [0 0 0 0] ------- [8:0 9:0 32 0] [1 0] 0 0
s 4.028657095 _8_ AGT  --- 3 tcp 1740 [0 0 0 0] ------- [8:0 9:0 32 0] [2 0] 0 0
r 4.028657095 _8_ RTR  --- 3 tcp 1740 [0 0 0 0] ------- [8:0 9:0 32 0] [2 0] 0 0
s 4.028657095 _8_ RTR  --- 2 tcp 1740 [0 0 0 0] ------- [8:0 9:0 30 10] [1 0] 0 0
s 4.028657095 _8_ RTR  --- 3 tcp 1740 [0 0 0 0] ------- [8:0 9:0 30 10] [2 0] 0 0
r 4.028946550 _10_ MAC  --- 0 ACK 38 [0 a 0 0] 
s 4.029276095 _8_ MAC  --- 0 RTS 44 [3aae a 8 0] 
r 4.029628550 _10_ MAC  --- 0 RTS 44 [3aae a 8 0] 
s 4.029638550 _10_ MAC  --- 0 CTS 38 [3974 8 0 0] 
r 4.029943005 _8_ MAC  --- 0 CTS 38 [3974 8 0 0] 
s 4.029953005 _8_ MAC  --- 2 tcp 1798 [13a a 8 800] ------- [8:0 9:0 30 10] [1 0] 0 0
s 4.030504367 _2_ RTR  --- 0 AODV 48 [0 ffffffff 3 800] ------- [2:255 -1:255 27 0] [0x2 4 1 [9 0] [8 4]] (REQUEST)
s 4.031092905 _1_ RTR  --- 0 AODV 48 [0 ffffffff 3 800] ------- [1:255 -1:255 27 0] [0x2 4 1 [9 0] [8 4]] (REQUEST)
r 4.044337460 _10_ MAC  --- 2 tcp 1740 [13a a 8 800] ------- [8:0 9:0 30 10] [1 0] 1 0
s 4.044347460 _10_ MAC  --- 0 ACK 38 [0 8 0 0] 
r 4.044362460 _10_ RTR  --- 2 tcp 1740 [13a a 8 800] ------- [8:0 9:0 30 10] [1 0] 1 0
f 4.044362460 _10_ RTR  --- 2 tcp 1740 [13a a 8 800] ------- [8:0 9:0 29 9] [1 0] 1 0
r 4.044651915 _8_ MAC  --- 0 ACK 38 [0 8 0 0] 
s 4.044701460 _10_ MAC  --- 0 RTS 44 [3aae 9 a 0] 
r 4.045054133 _9_ MAC  --- 0 RTS 44 [3aae 9 a 0] 
s 4.045064133 _9_ MAC  --- 0 CTS 38 [3974 a 0 0] 
r 4.045368806 _10_ MAC  --- 0 CTS 38 [3974 a 0 0] 
s 4.045378806 _10_ MAC  --- 2 tcp 1798 [13a 9 a 800] ------- [8:0 9:0 29 9] [1 0] 1 0
r 4.059763479 _9_ MAC  --- 2 tcp 1740 [13a 9 a 800] ------- [8:0 9:0 29 9] [1 0] 2 0
s 4.059773479 _9_ MAC  --- 0 ACK 38 [0 a 0 0] 
r 4.059788479 _9_ AGT  --- 2 tcp 1740 [13a 9 a 800] ------- [8:0 9:0 29 9] [1 0] 2 0
s 4.059788479 _9_ AGT  --- 4 ack 40 [0 0 0 0] ------- [9:0 8:0 32 0] [1 0] 0 0
r 4.059788479 _9_ RTR  --- 4 ack 40 [0 0 0 0] ------- [9:0 8:0 32 0] [1 0] 0 0
s 4.059788479 _9_ RTR  --- 4 ack 40 [0 0 0 0] ------- [9:0 8:0 30 10] [1 0] 0 0
r 4.060078151 _10_ MAC  --- 0 ACK 38 [0 a 0 0] 
s 4.060307479 _9_ MAC  --- 0 RTS 44 [58e a 9 0] 
r 4.060660151 _10_ MAC  --- 0 RTS 44 [58e a 9 0] 
s 4.060670151 _10_ MAC  --- 0 CTS 38 [454 9 0 0] 
r 4.060974824 _9_ MAC  --- 0 CTS 38 [454 9 0 0] 
s 4.060984824 _9_ MAC  --- 4 ack 98 [13a a 9 800] ------- [9:0 8:0 30 10] [1 0] 0 0
r 4.061769497 _10_ MAC  --- 4 ack 40 [13a a 9 800] ------- [9:0 8:0 30 10] [1 0] 1 0
s 4.061779497 _10_ MAC  --- 0 ACK 38 [0 9 0 0] 
r 4.061794497 _10_ RTR  --- 4 ack 40 [13a a 9 800] ------- [9:0 8:0 30 10] [1 0] 1 0
f 4.061794497 _10_ RTR  --- 4 ack 40 [13a a 9 800] ------- [9:0 8:0 29 8] [1 0] 1 0
r 4.062084170 _9_ MAC  --- 0 ACK 38 [0 9 0 0] 
s 4.062293497 _10_ MAC  --- 0 RTS 44 [58e 8 a 0] 
r 4.062645952 _8_ MAC  --- 0 RTS 44 [58e 8 a 0] 
s 4.062655952 _8_ MAC  --- 0 CTS 38 [454 a 0 0] 
r 4.062960406 _10_ MAC  --- 0 CTS 38 [454 a 0 0] 
s 4.062970406 _10_ MAC  --- 4 ack 98 [13a 8 a 800] ------- [9:0 8:0 29 8] [1 0] 1 0
r 4.063754861 _8_ MAC  --- 4 ack 40 [13a 8 a 800] ------- [9:0 8:0 29 8] [1 0] 2 0
s 4.063764861 _8_ MAC  --- 0 ACK 38 [0 a 0 0] 
r 4.063779861 _8_ AGT  --- 4 ack 40 [13a 8 a 800] ------- [9:0 8:0 29 8] [1 0] 2 0
s 4.063779861 _8_ AGT  --- 5 tcp 1740 [0 0 0 0] ------- [8:0 9:0 32 0] [3 0] 0 0
r 4.063779861 _8_ RTR  --- 5 tcp 1740 [0 0 0 0] ------- [8:0 9:0 32 0] [3 0] 0 0
s 4.063779861 _8_ AGT  --- 6 tcp 1740 [0 0 0 0] ------- [8:0 9:0 32 0] [4 0] 0 0
r 4.063779861 _8_ RTR  --- 6 tcp 1740 [0 0 0 0] ------- [8:0 9:0 32 0] [4 0] 0 0
s 4.063779861 _8_ RTR  --- 5 tcp 1740 [0 0 0 0] ------- [8:0 9:0 30 10] [3 0] 0 0
s 4.063779861 _8_ RTR  --- 6 tcp 1740 [0 0 0 0] ------- [8:0 9:0 30 10] [4 0] 0 0
r 4.064069316 _10_ MAC  --- 0 ACK 38 [0 a 0 0] 
s 4.064238861 _8_ MAC  --- 0 RTS 44 [3aae a 8 0] 
r 4.064591316 _10_ MAC  --- 0 RTS 44 [3aae a 8 0] 
s 4.064601316 _10_ MAC  --- 0 CTS 38 [3974 8 0 0] 
r 4.064905770 _8_ MAC  --- 0 CTS 38 [3974 8 0 0] 
s 4.064915770 _8_ MAC  --- 3 tcp 1798 [13a a 8 800] ------- [8:0 9:0 30 10] [2 0] 0 0
r 4.079300225 _10_ MAC  --- 3 tcp 1740 [13a a 8 800] ------- [8:0 9:0 30 10] [2 0] 1 0
s 4.079310225 _10_ MAC  --- 0 ACK 38 [0 8 0 0] 
r 4.079325225 _10_ RTR  --- 3 tcp 1740 [13a a 8 800] ------- [8:0 9:0 30 10] [2 0] 1 0
f 4.079325225 _10_ RTR  --- 3 tcp 1740 [13a a 8 800] ------- [8:0 9:0 29 9] [2 0] 1 0
r 4.079614679 _8_ MAC  --- 0 ACK 38 [0 8 0 0] 
s 4.079744679 _8_ MAC  --- 0 RTS 44 [3aae a 8 0] 
r 4.080097134 _10_ MAC  --- 0 RTS 44 [3aae a 8 0] 
s 4.080107134 _10_ MAC  --- 0 CTS 38 [3974 8 0 0] 
r 4.080411588 _8_ MAC  --- 0 CTS 38 [3974 8 0 0] 
s 4.080421588 _8_ MAC  --- 5 tcp 1798 [13a a 8 800] ------- [8:0 9:0 30 10] [3 0] 0 0
r 4.094806043 _10_ MAC  --- 5 tcp 1740 [13a a 8 800] ------- [8:0 9:0 30 10] [3 0] 1 0
s 4.094816043 _10_ MAC  --- 0 ACK 38 [0 8 0 0] 
r 4.094831043 _10_ RTR  --- 5 tcp 1740 [13a a 8 800] ------- [8:0 9:0 30 10] [3 0] 1 0
f 4.094831043 _10_ RTR  --- 5 tcp 1740 [13a a 8 800] ------- [8:0 9:0 29 9] [3 0] 1 0
r 4.095120497 _8_ MAC  --- 0 ACK 38 [0 8 0 0] 
s 4.095210043 _10_ MAC  --- 0 RTS 44 [3aae 9 a 0] 
r 4.095562716 _9_ MAC  --- 0 RTS 44 [3aae 9 a 0] 
s 4.095572716 _9_ MAC  --- 0 CTS 38 [3974 a 0 0] 
r 4.095877388 _10_ MAC  --- 0 CTS 38 [3974 a 0 0] 
s 4.095887388 _10_ MAC  --- 3 tcp 1798 [13a 9 a 800] ------- [8:0 9:0 29 9] [2 0] 1 0
r 4.110272061 _9_ MAC  --- 3 tcp 1740 [13a 9 a 800] ------- [8:0 9:0 29 9] [2 0] 2 0
s 4.110282061 _9_ MAC  --- 0 ACK 38 [0 a 0 0] 
r 4.110297061 _9_ AGT  --- 3 tcp 1740 [13a 9 a 800] ------- [8:0 9:0 29 9] [2 0] 2 0
s 4.110297061 _9_ AGT  --- 7 ack 40 [0 0 0 0] ------- [9:0 8:0 32 0] [2 0] 0 0
r 4.110297061 _9_ RTR  --- 7 ack 40 [0 0 0 0] ------- [9:0 8:0 32 0] [2 0] 0 0
s 4.110297061 _9_ RTR  --- 7 ack 40 [0 0 0 0] ------- [9:0 8:0 30 10] [2 0] 0 0
r 4.110586733 _10_ MAC  --- 0 ACK 38 [0 a 0 0] 
s 4.110636061 _9_ MAC  --- 0 RTS 44 [58e a 9 0] 
r 4.110988733 _10_ MAC  --- 0 RTS 44 [58e a 9 0] 
s 4.110998733 _10_ MAC  --- 0 CTS 38 [454 9 0 0] 
r 4.111303406 _9_ MAC  --- 0 CTS 38 [454 9 0 0] 
s 4.111313406 _9_ MAC  --- 7 ack 98 [13a a 9 800] ------- [9:0 8:0 30 10] [2 0] 0 0
r 4.112098078 _10_ MAC  --- 7 ack 40 [13a a 9 800] ------- [9:0 8:0 30 10] [2 0] 1 0
s 4.112108078 _10_ MAC  --- 0 ACK 38 [0 9 0 0] 
r 4.112123078 _10_ RTR  --- 7 ack 40 [13a a 9 800] ------- [9:0 8:0 30 10] [2 0] 1 0
f 4.112123078 _10_ RTR  --- 7 ack 40 [13a a 9 800] ------- [9:0 8:0 29 8] [2 0] 1 0
r 4.112412750 _9_ MAC  --- 0 ACK 38 [0 9 0 0] 
s 4.112702078 _10_ MAC  --- 0 RTS 44 [3aae 9 a 0] 
r 4.113054750 _9_ MAC  --- 0 RTS 44 [3aae 9 a 0] 
s 4.113064750 _9_ MAC  --- 0 CTS 38 [3974 a 0 0] 
r 4.113369423 _10_ MAC  --- 0 CTS 38 [3974 a 0 0] 
s 4.113379423 _10_ MAC  --- 5 tcp 1798 [13a 9 a 800] ------- [8:0 9:0 29 9] [3 0] 1 0
r 4.127764095 _9_ MAC  --- 5 tcp 1740 [13a 9 a 800] ------- [8:0 9:0 29 9] [3 0] 2 0
s 4.127774095 _9_ MAC  --- 0 ACK 38 [0 a 0 0] 
r 4.127789095 _9_ AGT  --- 5 tcp 1740 [13a 9 a 800] ------- [8:0 9:0 29 9] [3 0] 2 0
s 4.127789095 _9_ AGT  --- 8 ack 40 [0 0 0 0] ------- [9:0 8:0 32 0] [3 0] 0 0
r 4.127789095 _9_ RTR  --- 8 ack 40 [0 0 0 0] ------- [9:0 8:0 32 0] [3 0] 0 0
s 4.127789095 _9_ RTR  --- 8 ack 40 [0 0 0 0] ------- [9:0 8:0 30 10] [3 0] 0 0
r 4.128078768 _10_ MAC  --- 0 ACK 38 [0 a 0 0] 
s 4.128208095 _9_ MAC  --- 0 RTS 44 [58e a 9 0] 
r 4.128560768 _10_ MAC  --- 0 RTS 44 [58e a 9 0] 
s 4.128570768 _10_ MAC  --- 0 CTS 38 [454 9 0 0] 
r 4.128875440 _9_ MAC  --- 0 CTS 38 [454 9 0 0] 
s 4.128885440 _9_ MAC  --- 8 ack 98 [13a a 9 800] ------- [9:0 8:0 30 10] [3 0] 0 0
r 4.129670112 _10_ MAC  --- 8 ack 40 [13a a 9 800] ------- [9:0 8:0 30 10] [3 0] 1 0
s 4.129680112 _10_ MAC  --- 0 ACK 38 [0 9 0 0] 
r 4.129695112 _10_ RTR  --- 8 ack 40 [13a a 9 800] ------- [9:0 8:0 30 10] [3 0] 1 0
f 4.129695112 _10_ RTR  --- 8 ack 40 [13a a 9 800] ------- [9:0 8:0 29 8] [3 0] 1 0
r 4.129984785 _9_ MAC  --- 0 ACK 38 [0 9 0 0] 
s 4.130184564 _8_ MAC  --- 0 RTS 44 [3aae a 8 0] 
r 4.130537018 _10_ MAC  --- 0 RTS 44 [3aae a 8 0] 
s 4.130547018 _10_ MAC  --- 0 CTS 38 [3974 8 0 0] 
r 4.130851472 _8_ MAC  --- 0 CTS 38 [3974 8 0 0] 
s 4.130861472 _8_ MAC  --- 6 tcp 1798 [13a a 8 800] ------- [8:0 9:0 30 10] [4 0] 0 0
r 4.145245926 _10_ MAC  --- 6 tcp 1740 [13a a 8 800] ------- [8:0 9:0 30 10] [4 0] 1 0
s 4.145255926 _10_ MAC  --- 0 ACK 38 [0 8 0 0] 
r 4.145270926 _10_ RTR  --- 6 tcp 1740 [13a a 8 800] ------- [8:0 9:0 30 10] [4 0] 1 0
f 4.145270926 _10_ RTR  --- 6 tcp 1740 [13a a 8 800] ------- [8:0 9:0 29 9] [4 0] 1 0
r 4.145560380 _8_ MAC  --- 0 ACK 38 [0 8 0 0] 
s 4.145689926 _10_ MAC  --- 0 RTS 44 [58e 8 a 0] 
r 4.146042380 _8_ MAC  --- 0 RTS 44 [58e 8 a 0] 
s 4.146052380 _8_ MAC  --- 0 CTS 38 [454 a 0 0] 
r 4.146356835 _10_ MAC  --- 0 CTS 38 [454 a 0 0] 
s 4.146366835 _10_ MAC  --- 7 ack 98 [13a 8 a 800] ------- [9:0 8:0 29 8] [2 0] 1 0
r 4.147151289 _8_ MAC  --- 7 ack 40 [13a 8 a 800] ------- [9:0 8:0 29 8] [2 0] 2 0
s 4.147161289 _8_ MAC  --- 0 ACK 38 [0 a 0 0] 
r 4.147176289 _8_ AGT  --- 7 ack 40 [13a 8 a 800] ------- [9:0 8:0 29 8] [2 0] 2 0
s 4.147176289 _8_ AGT  --- 9 tcp 1740 [0 0 0 0] ------- [8:0 9:0 32 0] [5 0] 0 0
r 4.147176289 _8_ RTR  --- 9 tcp 1740 [0 0 0 0] ------- [8:0 9:0 32 0] [5 0] 0 0
s 4.147176289 _8_ AGT  --- 10 tcp 1740 [0 0 0 0] ------- [8:0 9:0 32 0] [6 0] 0 0
r 4.147176289 _8_ RTR  --- 10 tcp 1740 [0 0 0 0] ------- [8:0 9:0 32 0] [6 0] 0 0
s 4.147176289 _8_ RTR  --- 9 tcp 1740 [0 0 0 0] ------- [8:0 9:0 30 10] [5 0] 0 0
s 4.147176289 _8_ RTR  --- 10 tcp 1740 [0 0 0 0] ------- [8:0 9:0 30 10] [6 0] 0 0
r 4.147465743 _10_ MAC  --- 0 ACK 38 [0 a 0 0] 
s 4.147755743 _10_ MAC  --- 0 RTS 44 [58e 8 a 0] 
r 4.148108197 _8_ MAC  --- 0 RTS 44 [58e 8 a 0] 
s 4.148118197 _8_ MAC  --- 0 CTS 38 [454 a 0 0] 
r 4.148422651 _10_ MAC  --- 0 CTS 38 [454 a 0 0] 
s 4.148432651 _10_ MAC  --- 8 ack 98 [13a 8 a 800] ------- [9:0 8:0 29 8] [3 0] 1 0
r 4.149217105 _8_ MAC  --- 8 ack 40 [13a 8 a 800] ------- [9:0 8:0 29 8] [3 0] 2 0
s 4.149227105 _8_ MAC  --- 0 ACK 38 [0 a 0 0] 