s 0.100000000 _6_ AGT  --- 0 tcp 40 [0 0 0 0] ------- [6:1 1:0 32 0] [0 -1] 0 0
r 0.100000000 _6_ RTR  --- 0 tcp 40 [0 0 0 0] ------- [6:1 1:0 32 0] [0 -1] 0 0
s 0.100000000 _6_ AGT  --- 1 tcp 40 [0 0 0 0] ------- [6:2 2:0 32 0] [0 -1] 0 0
r 0.100000000 _6_ RTR  --- 1 tcp 40 [0 0 0 0] ------- [6:2 2:0 32 0] [0 -1] 0 0
s 0.100000000 _6_ AGT  --- 2 tcp 40 [0 0 0 0] ------- [6:3 3:0 32 0] [0 -1] 0 0
r 0.100000000 _6_ RTR  --- 2 tcp 40 [0 0 0 0] ------- [6:3 3:0 32 0] [0 -1] 0 0
s 0.100000000 _6_ AGT  --- 3 tcp 40 [0 0 0 0] ------- [6:4 4:0 32 0] [0 -1] 0 0
r 0.100000000 _6_ RTR  --- 3 tcp 40 [0 0 0 0] ------- [6:4 4:0 32 0] [0 -1] 0 0
s 0.100000000 _6_ AGT  --- 4 tcp 40 [0 0 0 0] ------- [6:5 7:0 32 0] [0 -1] 0 0
r 0.100000000 _6_ RTR  --- 4 tcp 40 [0 0 0 0] ------- [6:5 7:0 32 0] [0 -1] 0 0
s 0.100000000 _6_ AGT  --- 5 tcp 40 [0 0 0 0] ------- [6:6 8:0 32 0] [0 -1] 0 0
r 0.100000000 _6_ RTR  --- 5 tcp 40 [0 0 0 0] ------- [6:6 8:0 32 0] [0 -1] 0 0
s 0.100000000 _6_ AGT  --- 6 tcp 40 [0 0 0 0] ------- [6:7 9:0 32 0] [0 -1] 0 0
r 0.100000000 _6_ RTR  --- 6 tcp 40 [0 0 0 0] ------- [6:7 9:0 32 0] [0 -1] 0 0
s 0.100000000 _6_ AGT  --- 7 tcp 40 [0 0 0 0] ------- [6:8 10:0 32 0] [0 -1] 0 0
r 0.100000000 _6_ RTR  --- 7 tcp 40 [0 0 0 0] ------- [6:8 10:0 32 0] [0 -1] 0 0
s 0.100000000 _6_ AGT  --- 8 tcp 40 [0 0 0 0] ------- [6:9 11:0 32 0] [0 -1] 0 0
r 0.100000000 _6_ RTR  --- 8 tcp 40 [0 0 0 0] ------- [6:9 11:0 32 0] [0 -1] 0 0
s 0.100000000 _6_ AGT  --- 9 tcp 40 [0 0 0 0] ------- [6:10 0:0 32 0] [0 -1] 0 0
r 0.100000000 _6_ RTR  --- 9 tcp 40 [0 0 0 0] ------- [6:10 0:0 32 0] [0 -1] 0 0
s 0.100000000 _6_ RTR  --- 0 AODV 48 [0 0 0 0] ------- [6:255 -1:255 30 0] [0x2 1 1 [1 0] [6 4]] (REQUEST)
s 0.100000000 _6_ RTR  --- 0 AODV 48 [0 0 0 0] ------- [6:255 -1:255 30 0] [0x2 1 2 [2 0] [6 6]] (REQUEST)
s 0.100000000 _6_ RTR  --- 0 AODV 48 [0 0 0 0] ------- [6:255 -1:255 30 0] [0x2 1 3 [3 0] [6 8]] (REQUEST)
s 0.100000000 _6_ RTR  --- 0 AODV 48 [0 0 0 0] ------- [6:255 -1:255 30 0] [0x2 1 4 [4 0] [6 10]] (REQUEST)
s 0.100000000 _6_ RTR  --- 0 AODV 48 [0 0 0 0] ------- [6:255 -1:255 30 0] [0x2 1 5 [7 0] [6 12]] (REQUEST)
s 0.100000000 _6_ RTR  --- 0 AODV 48 [0 0 0 0] ------- [6:255 -1:255 30 0] [0x2 1 6 [8 0] [6 14]] (REQUEST)
s 0.100000000 _6_ RTR  --- 0 AODV 48 [0 0 0 0] ------- [6:255 -1:255 30 0] [0x2 1 7 [9 0] [6 16]] (REQUEST)
s 0.100000000 _6_ RTR  --- 0 AODV 48 [0 0 0 0] ------- [6:255 -1:255 30 0] [0x2 1 8 [10 0] [6 18]] (REQUEST)
s 0.100000000 _6_ RTR  --- 0 AODV 48 [0 0 0 0] ------- [6:255 -1:255 30 0] [0x2 1 9 [11 0] [6 20]] (REQUEST)
s 0.100000000 _6_ RTR  --- 0 AODV 48 [0 0 0 0] ------- [6:255 -1:255 30 0] [0x2 1 10 [0 0] [6 22]] (REQUEST)
s 0.100555000 _6_ MAC  --- 0 AODV 106 [0 ffffffff 6 800] ------- [6:255 -1:255 30 0] [0x2 1 1 [1 0] [6 4]] (REQUEST)
r 0.101403500 _5_ MAC  --- 0 AODV 48 [0 ffffffff 6 800] ------- [6:255 -1:255 30 0] [0x2 1 1 [1 0] [6 4]] (REQUEST)
r 0.101403500 _2_ MAC  --- 0 AODV 48 [0 ffffffff 6 800] ------- [6:255 -1:255 30 0] [0x2 1 1 [1 0] [6 4]] (REQUEST)
r 0.101403500 _7_ MAC  --- 0 AODV 48 [0 ffffffff 6 800] ------- [6:255 -1:255 30 0] [0x2 1 1 [1 0] [6 4]] (REQUEST)
r 0.101403500 _10_ MAC  --- 0 AODV 48 [0 ffffffff 6 800] ------- [6:255 -1:255 30 0] [0x2 1 1 [1 0] [6 4]] (REQUEST)
r 0.101403707 _3_ MAC  --- 0 AODV 48 [0 ffffffff 6 800] ------- [6:255 -1:255 30 0] [0x2 1 1 [1 0] [6 4]] (REQUEST)
r 0.101403707 _1_ MAC  --- 0 AODV 48 [0 ffffffff 6 800] ------- [6:255 -1:255 30 0] [0x2 1 1 [1 0] [6 4]] (REQUEST)
r 0.101403707 _9_ MAC  --- 0 AODV 48 [0 ffffffff 6 800] ------- [6:255 -1:255 30 0] [0x2 1 1 [1 0] [6 4]] (REQUEST)
r 0.101403707 _11_ MAC  --- 0 AODV 48 [0 ffffffff 6 800] ------- [6:255 -1:255 30 0] [0x2 1 1 [1 0] [6 4]] (REQUEST)
r 0.101403791 _12_ MAC  --- 0 AODV 48 [0 ffffffff 6 800] ------- [6:255 -1:255 30 0] [0x2 1 1 [1 0] [6 4]] (REQUEST)
r 0.101428500 _5_ RTR  --- 0 AODV 48 [0 ffffffff 6 800] ------- [6:255 -1:255 30 0] [0x2 1 1 [1 0] [6 4]] (REQUEST)
r 0.101428500 _2_ RTR  --- 0 AODV 48 [0 ffffffff 6 800] ------- [6:255 -1:255 30 0] [0x2 1 1 [1 0] [6 4]] (REQUEST)
r 0.101428500 _7_ RTR  --- 0 AODV 48 [0 ffffffff 6 800] ------- [6:255 -1:255 30 0] [0x2 1 1 [1 0] [6 4]] (REQUEST)
r 0.101428500 _10_ RTR  --- 0 AODV 48 [0 ffffffff 6 800] ------- [6:255 -1:255 30 0] [0x2 1 1 [1 0] [6 4]] (REQUEST)
r 0.101428707 _3_ RTR  --- 0 AODV 48 [0 ffffffff 6 800] ------- [6:255 -1:255 30 0] [0x2 1 1 [1 0] [6 4]] (REQUEST)
r 0.101428707 _1_ RTR  --- 0 AODV 48 [0 ffffffff 6 800] ------- [6:255 -1:255 30 0] [0x2 1 1 [1 0] [6 4]] (REQUEST)
r 0.101428707 _9_ RTR  --- 0 AODV 48 [0 ffffffff 6 800] ------- [6:255 -1:255 30 0] [0x2 1 1 [1 0] [6 4]] (REQUEST)
r 0.101428707 _11_ RTR  --- 0 AODV 48 [0 ffffffff 6 800] ------- [6:255 -1:255 30 0] [0x2 1 1 [1 0] [6 4]] (REQUEST)
s 0.101428707 _1_ RTR  --- 0 AODV 44 [0 0 0 0] ------- [1:255 6:255 30 6] [0x4 1 [1 4] 10.000000] (REPLY)
r 0.101428791 _12_ RTR  --- 0 AODV 48 [0 ffffffff 6 800] ------- [6:255 -1:255 30 0] [0x2 1 1 [1 0] [6 4]] (REQUEST)
s 0.101453000 _6_ MAC  --- 0 AODV 106 [0 ffffffff 6 800] ------- [6:255 -1:255 30 0] [0x2 1 10 [0 0] [6 22]] (REQUEST)
s 0.101704282 _3_ RTR  --- 0 AODV 48 [0 ffffffff 6 800] ------- [3:255 -1:255 29 0] [0x2 2 1 [1 0] [6 4]] (REQUEST)
r 0.102301500 _5_ MAC  --- 0 AODV 48 [0 ffffffff 6 800] ------- [6:255 -1:255 30 0] [0x2 1 10 [0 0] [6 22]] (REQUEST)
r 0.102301500 _2_ MAC  --- 0 AODV 48 [0 ffffffff 6 800] ------- [6:255 -1:255 30 0] [0x2 1 10 [0 0] [6 22]] (REQUEST)
r 0.102301500 _7_ MAC  --- 0 AODV 48 [0 ffffffff 6 800] ------- [6:255 -1:255 30 0] [0x2 1 10 [0 0] [6 22]] (REQUEST)
r 0.102301500 _10_ MAC  --- 0 AODV 48 [0 ffffffff 6 800] ------- [6:255 -1:255 30 0] [0x2 1 10 [0 0] [6 22]] (REQUEST)
r 0.102301707 _3_ MAC  --- 0 AODV 48 [0 ffffffff 6 800] ------- [6:255 -1:255 30 0] [0x2 1 10 [0 0] [6 22]] (REQUEST)
r 0.102301707 _1_ MAC  --- 0 AODV 48 [0 ffffffff 6 800] ------- [6:255 -1:255 30 0] [0x2 1 10 [0 0] [6 22]] (REQUEST)
r 0.102301707 _9_ MAC  --- 0 AODV 48 [0 ffffffff 6 800] ------- [6:255 -1:255 30 0] [0x2 1 10 [0 0] [6 22]] (REQUEST)
r 0.102301707 _11_ MAC  --- 0 AODV 48 [0 ffffffff 6 800] ------- [6:255 -1:255 30 0] [0x2 1 10 [0 0] [6 22]] (REQUEST)
r 0.102301791 _12_ MAC  --- 0 AODV 48 [0 ffffffff 6 800] ------- [6:255 -1:255 30 0] [0x2 1 10 [0 0] [6 22]] (REQUEST)
r 0.102326500 _5_ RTR  --- 0 AODV 48 [0 ffffffff 6 800] ------- [6:255 -1:255 30 0] [0x2 1 10 [0 0] [6 22]] (REQUEST)
r 0.102326500 _2_ RTR  --- 0 AODV 48 [0 ffffffff 6 800] ------- [6:255 -1:255 30 0] [0x2 1 10 [0 0] [6 22]] (REQUEST)
r 0.102326500 _7_ RTR  --- 0 AODV 48 [0 ffffffff 6 800] ------- [6:255 -1:255 30 0] [0x2 1 10 [0 0] [6 22]] (REQUEST)
r 0.102326500 _10_ RTR  --- 0 AODV 48 [0 ffffffff 6 800] ------- [6:255 -1:255 30 0] [0x2 1 10 [0 0] [6 22]] (REQUEST)
r 0.102326707 _3_ RTR  --- 0 AODV 48 [0 ffffffff 6 800] ------- [6:255 -1:255 30 0] [0x2 1 10 [0 0] [6 22]] (REQUEST)
r 0.102326707 _1_ RTR  --- 0 AODV 48 [0 ffffffff 6 800] ------- [6:255 -1:255 30 0] [0x2 1 10 [0 0] [6 22]] (REQUEST)
r 0.102326707 _9_ RTR  --- 0 AODV 48 [0 ffffffff 6 800] ------- [6:255 -1:255 30 0] [0x2 1 10 [0 0] [6 22]] (REQUEST)
r 0.102326707 _11_ RTR  --- 0 AODV 48 [0 ffffffff 6 800] ------- [6:255 -1:255 30 0] [0x2 1 10 [0 0] [6 22]] (REQUEST)
r 0.102326791 _12_ RTR  --- 0 AODV 48 [0 ffffffff 6 800] ------- [6:255 -1:255 30 0] [0x2 1 10 [0 0] [6 22]] (REQUEST)
s 0.102371000 _6_ MAC  --- 0 AODV 106 [0 ffffffff 6 800] ------- [6:255 -1:255 30 0] [0x2 1 9 [11 0] [6 20]] (REQUEST)
s 0.102828041 _1_ RTR  --- 0 AODV 48 [0 ffffffff 6 800] ------- [1:255 -1:255 29 0] [0x2 2 10 [0 0] [6 22]] (REQUEST)
r 0.103219500 _5_ MAC  --- 0 AODV 48 [0 ffffffff 6 800] ------- [6:255 -1:255 30 0] [0x2 1 9 [11 0] [6 20]] (REQUEST)
r 0.103219500 _2_ MAC  --- 0 AODV 48 [0 ffffffff 6 800] ------- [6:255 -1:255 30 0] [0x2 1 9 [11 0] [6 20]] (REQUEST)
r 0.103219500 _7_ MAC  --- 0 AODV 48 [0 ffffffff 6 800] ------- [6:255 -1:255 30 0] [0x2 1 9 [11 0] [6 20]] (REQUEST)
r 0.103219500 _10_ MAC  --- 0 AODV 48 [0 ffffffff 6 800] ------- [6:255 -1:255 30 0] [0x2 1 9 [11 0] [6 20]] (REQUEST)
r 0.103219707 _3_ MAC  --- 0 AODV 48 [0 ffffffff 6 800] ------- [6:255 -1:255 30 0] [0x2 1 9 [11 0] [6 20]] (REQUEST)
r 0.103219707 _1_ MAC  --- 0 AODV 48 [0 ffffffff 6 800] ------- [6:255 -1:255 30 0] [0x2 1 9 [11 0] [6 20]] (REQUEST)
r 0.103219707 _9_ MAC  --- 0 AODV 48 [0 ffffffff 6 800] ------- [6:255 -1:255 30 0] [0x2 1 9 [11 0] [6 20]] (REQUEST)
r 0.103219707 _11_ MAC  --- 0 AODV 48 [0 ffffffff 6 800] ------- [6:255 -1:255 30 0] [0x2 1 9 [11 0] [6 20]] (REQUEST)
r 0.103219791 _12_ MAC  --- 0 AODV 48 [0 ffffffff 6 800] ------- [6:255 -1:255 30 0] [0x2 1 9 [11 0] [6 20]] (REQUEST)
s 0.103240069 _10_ RTR  --- 0 AODV 48 [0 ffffffff 6 800] ------- [10:255 -1:255 29 0] [0x2 2 10 [0 0] [6 22]] (REQUEST)
r 0.103244500 _5_ RTR  --- 0 AODV 48 [0 ffffffff 6 800] ------- [6:255 -1:255 30 0] [0x2 1 9 [11 0] [6 20]] (REQUEST)
r 0.103244500 _2_ RTR  --- 0 AODV 48 [0 ffffffff 6 800] ------- [6:255 -1:255 30 0] [0x2 1 9 [11 0] [6 20]] (REQUEST)
r 0.103244500 _7_ RTR  --- 0 AODV 48 [0 ffffffff 6 800] ------- [6:255 -1:255 30 0] [0x2 1 9 [11 0] [6 20]] (REQUEST)
r 0.103244500 _10_ RTR  --- 0 AODV 48 [0 ffffffff 6 800] ------- [6:255 -1:255 30 0] [0x2 1 9 [11 0] [6 20]] (REQUEST)
r 0.103244707 _3_ RTR  --- 0 AODV 48 [0 ffffffff 6 800] ------- [6:255 -1:255 30 0] [0x2 1 9 [11 0] [6 20]] (REQUEST)
r 0.103244707 _1_ RTR  --- 0 AODV 48 [0 ffffffff 6 800] ------- [6:255 -1:255 30 0] [0x2 1 9 [11 0] [6 20]] (REQUEST)
r 0.103244707 _9_ RTR  --- 0 AODV 48 [0 ffffffff 6 800] ------- [6:255 -1:255 30 0] [0x2 1 9 [11 0] [6 20]] (REQUEST)
r 0.103244707 _11_ RTR  --- 0 AODV 48 [0 ffffffff 6 800] ------- [6:255 -1:255 30 0] [0x2 1 9 [11 0] [6 20]] (REQUEST)
s 0.103244707 _11_ RTR  --- 0 AODV 44 [0 0 0 0] ------- [11:255 6:255 30 6] [0x4 1 [11 4] 10.000000] (REPLY)
r 0.103244791 _12_ RTR  --- 0 AODV 48 [0 ffffffff 6 800] ------- [6:255 -1:255 30 0] [0x2 1 9 [11 0] [6 20]] (REQUEST)
s 0.103290850 _11_ RTR  --- 0 AODV 48 [0 ffffffff 6 800] ------- [11:255 -1:255 29 0] [0x2 2 1 [1 0] [6 4]] (REQUEST)
s 0.103349000 _6_ MAC  --- 0 AODV 106 [0 ffffffff 6 800] ------- [6:255 -1:255 30 0] [0x2 1 8 [10 0] [6 18]] (REQUEST)
s 0.104046741 _2_ RTR  --- 0 AODV 48 [0 ffffffff 6 800] ------- [2:255 -1:255 29 0] [0x2 2 1 [1 0] [6 4]] (REQUEST)
s 0.104113778 _2_ RTR  --- 0 AODV 48 [0 ffffffff 6 800] ------- [2:255 -1:255 29 0] [0x2 2 10 [0 0] [6 22]] (REQUEST)
s 0.104126501 _5_ RTR  --- 0 AODV 48 [0 ffffffff 6 800] ------- [5:255 -1:255 29 0] [0x2 2 9 [11 0] [6 20]] (REQUEST)
r 0.104197500 _5_ MAC  --- 0 AODV 48 [0 ffffffff 6 800] ------- [6:255 -1:255 30 0] [0x2 1 8 [10 0] [6 18]] (REQUEST)
r 0.104197500 _2_ MAC  --- 0 AODV 48 [0 ffffffff 6 800] ------- [6:255 -1:255 30 0] [0x2 1 8 [10 0] [6 18]] (REQUEST)
r 0.104197500 _7_ MAC  --- 0 AODV 48 [0 ffffffff 6 800] ------- [6:255 -1:255 30 0] [0x2 1 8 [10 0] [6 18]] (REQUEST)
r 0.104197500 _10_ MAC  --- 0 AODV 48 [0 ffffffff 6 800] ------- [6:255 -1:255 30 0] [0x2 1 8 [10 0] [6 18]] (REQUEST)
r 0.104197707 _3_ MAC  --- 0 AODV 48 [0 ffffffff 6 800] ------- [6:255 -1:255 30 0] [0x2 1 8 [10 0] [6 18]] (REQUEST)
r 0.104197707 _1_ MAC  --- 0 AODV 48 [0 ffffffff 6 800] ------- [6:255 -1:255 30 0] [0x2 1 8 [10 0] [6 18]] (REQUEST)
r 0.104197707 _9_ MAC  --- 0 AODV 48 [0 ffffffff 6 800] ------- [6:255 -1:255 30 0] [0x2 1 8 [10 0] [6 18]] (REQUEST)
r 0.104197707 _11_ MAC  --- 0 AODV 48 [0 ffffffff 6 800] ------- [6:255 -1:255 30 0] [0x2 1 8 [10 0] [6 18]] (REQUEST)
r 0.104197791 _12_ MAC  --- 0 AODV 48 [0 ffffffff 6 800] ------- [6:255 -1:255 30 0] [0x2 1 8 [10 0] [6 18]] (REQUEST)
r 0.104222500 _5_ RTR  --- 0 AODV 48 [0 ffffffff 6 800] ------- [6:255 -1:255 30 0] [0x2 1 8 [10 0] [6 18]] (REQUEST)
r 0.104222500 _2_ RTR  --- 0 AODV 48 [0 ffffffff 6 800] ------- [6:255 -1:255 30 0] [0x2 1 8 [10 0] [6 18]] (REQUEST)
r 0.104222500 _7_ RTR  --- 0 AODV 48 [0 ffffffff 6 800] ------- [6:255 -1:255 30 0] [0x2 1 8 [10 0] [6 18]] (REQUEST)
r 0.104222500 _10_ RTR  --- 0 AODV 48 [0 ffffffff 6 800] ------- [6:255 -1:255 30 0] [0x2 1 8 [10 0] [6 18]] (REQUEST)
s 0.104222500 _10_ RTR  --- 0 AODV 44 [0 0 0 0] ------- [10:255 6:255 30 6] [0x4 1 [10 4] 10.000000] (REPLY)
r 0.104222707 _3_ RTR  --- 0 AODV 48 [0 ffffffff 6 800] ------- [6:255 -1:255 30 0] [0x2 1 8 [10 0] [6 18]] (REQUEST)
r 0.104222707 _1_ RTR  --- 0 AODV 48 [0 ffffffff 6 800] ------- [6:255 -1:255 30 0] [0x2 1 8 [10 0] [6 18]] (REQUEST)
r 0.104222707 _9_ RTR  --- 0 AODV 48 [0 ffffffff 6 800] ------- [6:255 -1:255 30 0] [0x2 1 8 [10 0] [6 18]] (REQUEST)
r 0.104222707 _11_ RTR  --- 0 AODV 48 [0 ffffffff 6 800] ------- [6:255 -1:255 30 0] [0x2 1 8 [10 0] [6 18]] (REQUEST)
r 0.104222791 _12_ RTR  --- 0 AODV 48 [0 ffffffff 6 800] ------- [6:255 -1:255 30 0] [0x2 1 8 [10 0] [6 18]] (REQUEST)
s 0.104224452 _1_ RTR  --- 0 AODV 48 [0 ffffffff 6 800] ------- [1:255 -1:255 29 0] [0x2 2 8 [10 0] [6 18]] (REQUEST)
s 0.104327707 _11_ MAC  --- 0 ARP 86 [0 ffffffff b 806] ------- [REQUEST 11/11 0/6]
s 0.104701877 _9_ RTR  --- 0 AODV 48 [0 ffffffff 6 800] ------- [9:255 -1:255 29 0] [0x2 2 1 [1 0] [6 4]] (REQUEST)
r 0.105016207 _10_ MAC  --- 0 ARP 28 [0 ffffffff b 806] ------- [REQUEST 11/11 0/6]
r 0.105016207 _7_ MAC  --- 0 ARP 28 [0 ffffffff b 806] ------- [REQUEST 11/11 0/6]
r 0.105016414 _6_ MAC  --- 0 ARP 28 [0 ffffffff b 806] ------- [REQUEST 11/11 0/6]
r 0.105016498 _12_ MAC  --- 0 ARP 28 [0 ffffffff b 806] ------- [REQUEST 11/11 0/6]
s 0.105057006 _9_ RTR  --- 0 AODV 48 [0 ffffffff 6 800] ------- [9:255 -1:255 29 0] [0x2 2 8 [10 0] [6 18]] (REQUEST)
s 0.105286414 _6_ MAC  --- 0 AODV 106 [0 ffffffff 6 800] ------- [6:255 -1:255 30 0] [0x2 1 7 [9 0] [6 16]] (REQUEST)
s 0.105685373 _10_ RTR  --- 0 AODV 48 [0 ffffffff 6 800] ------- [10:255 -1:255 29 0] [0x2 2 1 [1 0] [6 4]] (REQUEST)
s 0.105722384 _5_ RTR  --- 0 AODV 48 [0 ffffffff 6 800] ------- [5:255 -1:255 29 0] [0x2 2 8 [10 0] [6 18]] (REQUEST)
r 0.106134914 _5_ MAC  --- 0 AODV 48 [0 ffffffff 6 800] ------- [6:255 -1:255 30 0] [0x2 1 7 [9 0] [6 16]] (REQUEST)
r 0.106134914 _2_ MAC  --- 0 AODV 48 [0 ffffffff 6 800] ------- [6:255 -1:255 30 0] [0x2 1 7 [9 0] [6 16]] (REQUEST)
r 0.106134914 _7_ MAC  --- 0 AODV 48 [0 ffffffff 6 800] ------- [6:255 -1:255 30 0] [0x2 1 7 [9 0] [6 16]] (REQUEST)
r 0.106134914 _10_ MAC  --- 0 AODV 48 [0 ffffffff 6 800] ------- [6:255 -1:255 30 0] [0x2 1 7 [9 0] [6 16]] (REQUEST)
r 0.106135121 _3_ MAC  --- 0 AODV 48 [0 ffffffff 6 800] ------- [6:255 -1:255 30 0] [0x2 1 7 [9 0] [6 16]] (REQUEST)
r 0.106135121 _1_ MAC  --- 0 AODV 48 [0 ffffffff 6 800] ------- [6:255 -1:255 30 0] [0x2 1 7 [9 0] [6 16]] (REQUEST)
r 0.106135121 _9_ MAC  --- 0 AODV 48 [0 ffffffff 6 800] ------- [6:255 -1:255 30 0] [0x2 1 7 [9 0] [6 16]] (REQUEST)
r 0.106135121 _11_ MAC  --- 0 AODV 48 [0 ffffffff 6 800] ------- [6:255 -1:255 30 0] [0x2 1 7 [9 0] [6 16]] (REQUEST)
r 0.106135205 _12_ MAC  --- 0 AODV 48 [0 ffffffff 6 800] ------- [6:255 -1:255 30 0] [0x2 1 7 [9 0] [6 16]] (REQUEST)
r 0.106159914 _5_ RTR  --- 0 AODV 48 [0 ffffffff 6 800] ------- [6:255 -1:255 30 0] [0x2 1 7 [9 0] [6 16]] (REQUEST)
r 0.106159914 _2_ RTR  --- 0 AODV 48 [0 ffffffff 6 800] ------- [6:255 -1:255 30 0] [0x2 1 7 [9 0] [6 16]] (REQUEST)
r 0.106159914 _7_ RTR  --- 0 AODV 48 [0 ffffffff 6 800] ------- [6:255 -1:255 30 0] [0x2 1 7 [9 0] [6 16]] (REQUEST)
r 0.106159914 _10_ RTR  --- 0 AODV 48 [0 ffffffff 6 800] ------- [6:255 -1:255 30 0] [0x2 1 7 [9 0] [6 16]] (REQUEST)
r 0.106160121 _3_ RTR  --- 0 AODV 48 [0 ffffffff 6 800] ------- [6:255 -1:255 30 0] [0x2 1 7 [9 0] [6 16]] (REQUEST)
r 0.106160121 _1_ RTR  --- 0 AODV 48 [0 ffffffff 6 800] ------- [6:255 -1:255 30 0] [0x2 1 7 [9 0] [6 16]] (REQUEST)
r 0.106160121 _9_ RTR  --- 0 AODV 48 [0 ffffffff 6 800] ------- [6:255 -1:255 30 0] [0x2 1 7 [9 0] [6 16]] (REQUEST)
r 0.106160121 _11_ RTR  --- 0 AODV 48 [0 ffffffff 6 800] ------- [6:255 -1:255 30 0] [0x2 1 7 [9 0] [6 16]] (REQUEST)
s 0.106160121 _9_ RTR  --- 0 AODV 44 [0 0 0 0] ------- [9:255 6:255 30 6] [0x4 1 [9 4] 10.000000] (REPLY)
r 0.106160205 _12_ RTR  --- 0 AODV 48 [0 ffffffff 6 800] ------- [6:255 -1:255 30 0] [0x2 1 7 [9 0] [6 16]] (REQUEST)
s 0.106193417 _2_ RTR  --- 0 AODV 48 [0 ffffffff 6 800] ------- [2:255 -1:255 29 0] [0x2 2 7 [9 0] [6 16]] (REQUEST)
s 0.106285121 _3_ MAC  --- 0 AODV 106 [0 ffffffff 3 800] ------- [3:255 -1:255 29 0] [0x2 2 1 [1 0] [6 4]] (REQUEST)
s 0.106479619 _12_ RTR  --- 0 AODV 48 [0 ffffffff 6 800] ------- [12:255 -1:255 29 0] [0x2 2 7 [9 0] [6 16]] (REQUEST)
s 0.106976897 _7_ RTR  --- 0 AODV 48 [0 ffffffff 6 800] ------- [7:255 -1:255 29 0] [0x2 2 1 [1 0] [6 4]] (REQUEST)
r 0.107133621 _2_ MAC  --- 0 AODV 48 [0 ffffffff 3 800] ------- [3:255 -1:255 29 0] [0x2 2 1 [1 0] [6 4]] (REQUEST)
r 0.107133621 _7_ MAC  --- 0 AODV 48 [0 ffffffff 3 800] ------- [3:255 -1:255 29 0] [0x2 2 1 [1 0] [6 4]] (REQUEST)
r 0.107133828 _6_ MAC  --- 0 AODV 48 [0 ffffffff 3 800] ------- [3:255 -1:255 29 0] [0x2 2 1 [1 0] [6 4]] (REQUEST)
r 0.107158621 _2_ RTR  --- 0 AODV 48 [0 ffffffff 3 800] ------- [3:255 -1:255 29 0] [0x2 2 1 [1 0] [6 4]] (REQUEST)
r 0.107158621 _7_ RTR  --- 0 AODV 48 [0 ffffffff 3 800] ------- [3:255 -1:255 29 0] [0x2 2 1 [1 0] [6 4]] (REQUEST)
r 0.107158828 _6_ RTR  --- 0 AODV 48 [0 ffffffff 3 800] ------- [3:255 -1:255 29 0] [0x2 2 1 [1 0] [6 4]] (REQUEST)
s 0.107203828 _6_ MAC  --- 0 AODV 106 [0 ffffffff 6 800] ------- [6:255 -1:255 30 0] [0x2 1 6 [8 0] [6 14]] (REQUEST)
s 0.107243924 _3_ RTR  --- 0 AODV 48 [0 ffffffff 6 800] ------- [3:255 -1:255 29 0] [0x2 2 10 [0 0] [6 22]] (REQUEST)
s 0.107544851 _11_ RTR  --- 0 AODV 48 [0 ffffffff 6 800] ------- [11:255 -1:255 29 0] [0x2 2 8 [10 0] [6 18]] (REQUEST)
s 0.107655693 _11_ RTR  --- 0 AODV 48 [0 ffffffff 6 800] ------- [11:255 -1:255 29 0] [0x2 2 10 [0 0] [6 22]] (REQUEST)
s 0.107872311 _11_ RTR  --- 0 AODV 48 [0 ffffffff 6 800] ------- [11:255 -1:255 29 0] [0x2 2 7 [9 0] [6 16]] (REQUEST)
s 0.107958746 _3_ RTR  --- 0 AODV 48 [0 ffffffff 6 800] ------- [3:255 -1:255 29 0] [0x2 2 8 [10 0] [6 18]] (REQUEST)
r 0.108052328 _5_ MAC  --- 0 AODV 48 [0 ffffffff 6 800] ------- [6:255 -1:255 30 0] [0x2 1 6 [8 0] [6 14]] (REQUEST)
r 0.108052328 _2_ MAC  --- 0 AODV 48 [0 ffffffff 6 800] ------- [6:255 -1:255 30 0] [0x2 1 6 [8 0] [6 14]] (REQUEST)
r 0.108052328 _7_ MAC  --- 0 AODV 48 [0 ffffffff 6 800] ------- [6:255 -1:255 30 0] [0x2 1 6 [8 0] [6 14]] (REQUEST)
r 0.108052328 _10_ MAC  --- 0 AODV 48 [0 ffffffff 6 800] ------- [6:255 -1:255 30 0] [0x2 1 6 [8 0] [6 14]] (REQUEST)
r 0.108052536 _3_ MAC  --- 0 AODV 48 [0 ffffffff 6 800] ------- [6:255 -1:255 30 0] [0x2 1 6 [8 0] [6 14]] (REQUEST)
r 0.108052536 _1_ MAC  --- 0 AODV 48 [0 ffffffff 6 800] ------- [6:255 -1:255 30 0] [0x2 1 6 [8 0] [6 14]] (REQUEST)
r 0.108052536 _9_ MAC  --- 0 AODV 48 [0 ffffffff 6 800] ------- [6:255 -1:255 30 0] [0x2 1 6 [8 0] [6 14]] (REQUEST)
r 0.108052536 _11_ MAC  --- 0 AODV 48 [0 ffffffff 6 800] ------- [6:255 -1:255 30 0] [0x2 1 6 [8 0] [6 14]] (REQUEST)
r 0.108052619 _12_ MAC  --- 0 AODV 48 [0 ffffffff 6 800] ------- [6:255 -1:255 30 0] [0x2 1 6 [8 0] [6 14]] (REQUEST)
r 0.108077328 _5_ RTR  --- 0 AODV 48 [0 ffffffff 6 800] ------- [6:255 -1:255 30 0] [0x2 1 6 [8 0] [6 14]] (REQUEST)
r 0.108077328 _2_ RTR  --- 0 AODV 48 [0 ffffffff 6 800] ------- [6:255 -1:255 30 0] [0x2 1 6 [8 0] [6 14]] (REQUEST)
r 0.108077328 _7_ RTR  --- 0 AODV 48 [0 ffffffff 6 800] ------- [6:255 -1:255 30 0] [0x2 1 6 [8 0] [6 14]] (REQUEST)
r 0.108077328 _10_ RTR  --- 0 AODV 48 [0 ffffffff 6 800] ------- [6:255 -1:255 30 0] [0x2 1 6 [8 0] [6 14]] (REQUEST)
r 0.108077536 _3_ RTR  --- 0 AODV 48 [0 ffffffff 6 800] ------- [6:255 -1:255 30 0] [0x2 1 6 [8 0] [6 14]] (REQUEST)
r 0.108077536 _1_ RTR  --- 0 AODV 48 [0 ffffffff 6 800] ------- [6:255 -1:255 30 0] [0x2 1 6 [8 0] [6 14]] (REQUEST)
r 0.108077536 _9_ RTR  --- 0 AODV 48 [0 ffffffff 6 800] ------- [6:255 -1:255 30 0] [0x2 1 6 [8 0] [6 14]] (REQUEST)
r 0.108077536 _11_ RTR  --- 0 AODV 48 [0 ffffffff 6 800] ------- [6:255 -1:255 30 0] [0x2 1 6 [8 0] [6 14]] (REQUEST)
r 0.108077619 _12_ RTR  --- 0 AODV 48 [0 ffffffff 6 800] ------- [6:255 -1:255 30 0] [0x2 1 6 [8 0] [6 14]] (REQUEST)
s 0.108122536 _1_ MAC  --- 0 ARP 86 [0 ffffffff 1 806] ------- [REQUEST 1/1 0/6]
s 0.108237300 _2_ RTR  --- 0 AODV 48 [0 ffffffff 6 800] ------- [2:255 -1:255 29 0] [0x2 2 6 [8 0] [6 14]] (REQUEST)
s 0.108286275 _2_ RTR  --- 0 AODV 48 [0 ffffffff 6 800] ------- [2:255 -1:255 29 0] [0x2 2 8 [10 0] [6 18]] (REQUEST)
r 0.108811036 _0_ MAC  --- 0 ARP 28 [0 ffffffff 1 806] ------- [REQUEST 1/1 0/6]
r 0.108811036 _2_ MAC  --- 0 ARP 28 [0 ffffffff 1 806] ------- [REQUEST 1/1 0/6]
r 0.108811036 _5_ MAC  --- 0 ARP 28 [0 ffffffff 1 806] ------- [REQUEST 1/1 0/6]
r 0.108811243 _4_ MAC  --- 0 ARP 28 [0 ffffffff 1 806] ------- [REQUEST 1/1 0/6]
r 0.108811243 _6_ MAC  --- 0 ARP 28 [0 ffffffff 1 806] ------- [REQUEST 1/1 0/6]
s 0.108880536 _1_ MAC  --- 0 AODV 106 [0 ffffffff 1 800] ------- [1:255 -1:255 29 0] [0x2 2 8 [10 0] [6 18]] (REQUEST)
s 0.109105832 _1_ RTR  --- 0 AODV 48 [0 ffffffff 6 800] ------- [1:255 -1:255 29 0] [0x2 2 9 [11 0] [6 20]] (REQUEST)
s 0.109209804 _5_ RTR  --- 0 AODV 48 [0 ffffffff 6 800] ------- [5:255 -1:255 29 0] [0x2 2 7 [9 0] [6 16]] (REQUEST)
s 0.109269307 _1_ RTR  --- 0 AODV 48 [0 ffffffff 6 800] ------- [1:255 -1:255 29 0] [0x2 2 6 [8 0] [6 14]] (REQUEST)
s 0.109275873 _5_ RTR  --- 0 AODV 48 [0 ffffffff 6 800] ------- [5:255 -1:255 29 0] [0x2 2 10 [0 0] [6 22]] (REQUEST)
s 0.109278662 _12_ RTR  --- 0 AODV 48 [0 ffffffff 6 800] ------- [12:255 -1:255 29 0] [0x2 2 1 [1 0] [6 4]] (REQUEST)
s 0.109377262 _7_ RTR  --- 0 AODV 48 [0 ffffffff 6 800] ------- [7:255 -1:255 29 0] [0x2 2 7 [9 0] [6 16]] (REQUEST)
s 0.109677702 _12_ RTR  --- 0 AODV 48 [0 ffffffff 6 800] ------- [12:255 -1:255 29 0] [0x2 2 10 [0 0] [6 22]] (REQUEST)
s 0.109683730 _7_ RTR  --- 0 AODV 48 [0 ffffffff 6 800] ------- [7:255 -1:255 29 0] [0x2 2 8 [10 0] [6 18]] (REQUEST)
r 0.109729036 _0_ MAC  --- 0 AODV 48 [0 ffffffff 1 800] ------- [1:255 -1:255 29 0] [0x2 2 8 [10 0] [6 18]] (REQUEST)
r 0.109729036 _2_ MAC  --- 0 AODV 48 [0 ffffffff 1 800] ------- [1:255 -1:255 29 0] [0x2 2 8 [10 0] [6 18]] (REQUEST)
r 0.109729036 _5_ MAC  --- 0 AODV 48 [0 ffffffff 1 800] ------- [1:255 -1:255 29 0] [0x2 2 8 [10 0] [6 18]] (REQUEST)
r 0.109729243 _4_ MAC  --- 0 AODV 48 [0 ffffffff 1 800] ------- [1:255 -1:255 29 0] [0x2 2 8 [10 0] [6 18]] (REQUEST)
r 0.109729243 _6_ MAC  --- 0 AODV 48 [0 ffffffff 1 800] ------- [1:255 -1:255 29 0] [0x2 2 8 [10 0] [6 18]] (REQUEST)
r 0.109754036 _0_ RTR  --- 0 AODV 48 [0 ffffffff 1 800] ------- [1:255 -1:255 29 0] [0x2 2 8 [10 0] [6 18]] (REQUEST)
r 0.109754036 _2_ RTR  --- 0 AODV 48 [0 ffffffff 1 800] ------- [1:255 -1:255 29 0] [0x2 2 8 [10 0] [6 18]] (REQUEST)
r 0.109754036 _5_ RTR  --- 0 AODV 48 [0 ffffffff 1 800] ------- [1:255 -1:255 29 0] [0x2 2 8 [10 0] [6 18]] (REQUEST)
r 0.109754243 _4_ RTR  --- 0 AODV 48 [0 ffffffff 1 800] ------- [1:255 -1:255 29 0] [0x2 2 8 [10 0] [6 18]] (REQUEST)
r 0.109754243 _6_ RTR  --- 0 AODV 48 [0 ffffffff 1 800] ------- [1:255 -1:255 29 0] [0x2 2 8 [10 0] [6 18]] (REQUEST)
s 0.109798536 _1_ MAC  --- 0 AODV 106 [0 ffffffff 1 800] ------- [1:255 -1:255 29 0] [0x2 2 6 [8 0] [6 14]] (REQUEST)
s 0.110153480 _5_ RTR  --- 0 AODV 48 [0 ffffffff 6 800] ------- [5:255 -1:255 29 0] [0x2 2 6 [8 0] [6 14]] (REQUEST)
s 0.110195057 _5_ RTR  --- 0 AODV 48 [0 ffffffff 6 800] ------- [5:255 -1:255 29 0] [0x2 2 1 [1 0] [6 4]] (REQUEST)
s 0.110219056 _11_ RTR  --- 0 AODV 48 [0 ffffffff 6 800] ------- [11:255 -1:255 29 0] [0x2 2 6 [8 0] [6 14]] (REQUEST)
s 0.110524918 _10_ RTR  --- 0 AODV 48 [0 ffffffff 6 800] ------- [10:255 -1:255 29 0] [0x2 2 9 [11 0] [6 20]] (REQUEST)
s 0.110603112 _9_ RTR  --- 0 AODV 48 [0 ffffffff 6 800] ------- [9:255 -1:255 29 0] [0x2 2 9 [11 0] [6 20]] (REQUEST)
r 0.110647036 _0_ MAC  --- 0 AODV 48 [0 ffffffff 1 800] ------- [1:255 -1:255 29 0] [0x2 2 6 [8 0] [6 14]] (REQUEST)
r 0.110647036 _2_ MAC  --- 0 AODV 48 [0 ffffffff 1 800] ------- [1:255 -1:255 29 0] [0x2 2 6 [8 0] [6 14]] (REQUEST)
r 0.110647036 _5_ MAC  --- 0 AODV 48 [0 ffffffff 1 800] ------- [1:255 -1:255 29 0] [0x2 2 6 [8 0] [6 14]] (REQUEST)
r 0.110647243 _4_ MAC  --- 0 AODV 48 [0 ffffffff 1 800] ------- [1:255 -1:255 29 0] [0x2 2 6 [8 0] [6 14]] (REQUEST)
r 0.110647243 _6_ MAC  --- 0 AODV 48 [0 ffffffff 1 800] ------- [1:255 -1:255 29 0] [0x2 2 6 [8 0] [6 14]] (REQUEST)
r 0.110672036 _0_ RTR  --- 0 AODV 48 [0 ffffffff 1 800] ------- [1:255 -1:255 29 0] [0x2 2 6 [8 0] [6 14]] (REQUEST)
r 0.110672036 _2_ RTR  --- 0 AODV 48 [0 ffffffff 1 800] ------- [1:255 -1:255 29 0] [0x2 2 6 [8 0] [6 14]] (REQUEST)
r 0.110672036 _5_ RTR  --- 0 AODV 48 [0 ffffffff 1 800] ------- [1:255 -1:255 29 0] [0x2 2 6 [8 0] [6 14]] (REQUEST)
r 0.110672243 _4_ RTR  --- 0 AODV 48 [0 ffffffff 1 800] ------- [1:255 -1:255 29 0] [0x2 2 6 [8 0] [6 14]] (REQUEST)
r 0.110672243 _6_ RTR  --- 0 AODV 48 [0 ffffffff 1 800] ------- [1:255 -1:255 29 0] [0x2 2 6 [8 0] [6 14]] (REQUEST)
s 0.110737243 _6_ MAC  --- 0 AODV 106 [0 ffffffff 6 800] ------- [6:255 -1:255 30 0] [0x2 1 5 [7 0] [6 12]] (REQUEST)
s 0.110977762 _9_ RTR  --- 0 AODV 48 [0 ffffffff 6 800] ------- [9:255 -1:255 29 0] [0x2 2 10 [0 0] [6 22]] (REQUEST)
s 0.111179689 _12_ RTR  --- 0 AODV 48 [0 ffffffff 6 800] ------- [12:255 -1:255 29 0] [0x2 2 8 [10 0] [6 18]] (REQUEST)
s 0.111264909 _12_ RTR  --- 0 AODV 48 [0 ffffffff 6 800] ------- [12:255 -1:255 29 0] [0x2 2 9 [11 0] [6 20]] (REQUEST)
s 0.111388502 _2_ RTR  --- 0 AODV 48 [0 ffffffff 6 800] ------- [2:255 -1:255 29 0] [0x2 2 9 [11 0] [6 20]] (REQUEST)
s 0.111389656 _3_ RTR  --- 0 AODV 48 [0 ffffffff 6 800] ------- [3:255 -1:255 29 0] [0x2 2 6 [8 0] [6 14]] (REQUEST)
r 0.111585743 _5_ MAC  --- 0 AODV 48 [0 ffffffff 6 800] ------- [6:255 -1:255 30 0] [0x2 1 5 [7 0] [6 12]] (REQUEST)
r 0.111585743 _2_ MAC  --- 0 AODV 48 [0 ffffffff 6 800] ------- [6:255 -1:255 30 0] [0x2 1 5 [7 0] [6 12]] (REQUEST)
r 0.111585743 _7_ MAC  --- 0 AODV 48 [0 ffffffff 6 800] ------- [6:255 -1:255 30 0] [0x2 1 5 [7 0] [6 12]] (REQUEST)
r 0.111585743 _10_ MAC  --- 0 AODV 48 [0 ffffffff 6 800] ------- [6:255 -1:255 30 0] [0x2 1 5 [7 0] [6 12]] (REQUEST)
r 0.111585950 _3_ MAC  --- 0 AODV 48 [0 ffffffff 6 800] ------- [6:255 -1:255 30 0] [0x2 1 5 [7 0] [6 12]] (REQUEST)
r 0.111585950 _1_ MAC  --- 0 AODV 48 [0 ffffffff 6 800] ------- [6:255 -1:255 30 0] [0x2 1 5 [7 0] [6 12]] (REQUEST)
r 0.111585950 _9_ MAC  --- 0 AODV 48 [0 ffffffff 6 800] ------- [6:255 -1:255 30 0] [0x2 1 5 [7 0] [6 12]] (REQUEST)
r 0.111585950 _11_ MAC  --- 0 AODV 48 [0 ffffffff 6 800] ------- [6:255 -1:255 30 0] [0x2 1 5 [7 0] [6 12]] (REQUEST)
r 0.111586033 _12_ MAC  --- 0 AODV 48 [0 ffffffff 6 800] ------- [6:255 -1:255 30 0] [0x2 1 5 [7 0] [6 12]] (REQUEST)
r 0.111610743 _5_ RTR  --- 0 AODV 48 [0 ffffffff 6 800] ------- [6:255 -1:255 30 0] [0x2 1 5 [7 0] [6 12]] (REQUEST)
r 0.111610743 _2_ RTR  --- 0 AODV 48 [0 ffffffff 6 800] ------- [6:255 -1:255 30 0] [0x2 1 5 [7 0] [6 12]] (REQUEST)
r 0.111610743 _7_ RTR  --- 0 AODV 48 [0 ffffffff 6 800] ------- [6:255 -1:255 30 0] [0x2 1 5 [7 0] [6 12]] (REQUEST)
r 0.111610743 _10_ RTR  --- 0 AODV 48 [0 ffffffff 6 800] ------- [6:255 -1:255 30 0] [0x2 1 5 [7 0] [6 12]] (REQUEST)
s 0.111610743 _7_ RTR  --- 0 AODV 44 [0 0 0 0] ------- [7:255 6:255 30 6] [0x4 1 [7 4] 10.000000] (REPLY)
r 0.111610950 _3_ RTR  --- 0 AODV 48 [0 ffffffff 6 800] ------- [6:255 -1:255 30 0] [0x2 1 5 [7 0] [6 12]] (REQUEST)
r 0.111610950 _1_ RTR  --- 0 AODV 48 [0 ffffffff 6 800] ------- [6:255 -1:255 30 0] [0x2 1 5 [7 0] [6 12]] (REQUEST)
r 0.111610950 _9_ RTR  --- 0 AODV 48 [0 ffffffff 6 800] ------- [6:255 -1:255 30 0] [0x2 1 5 [7 0] [6 12]] (REQUEST)
r 0.111610950 _11_ RTR  --- 0 AODV 48 [0 ffffffff 6 800] ------- [6:255 -1:255 30 0] [0x2 1 5 [7 0] [6 12]] (REQUEST)
r 0.111611033 _12_ RTR  --- 0 AODV 48 [0 ffffffff 6 800] ------- [6:255 -1:255 30 0] [0x2 1 5 [7 0] [6 12]] (REQUEST)
s 0.111695950 _11_ MAC  --- 0 AODV 106 [0 ffffffff b 800] ------- [11:255 -1:255 29 0] [0x2 2 1 [1 0] [6 4]] (REQUEST)
s 0.111991170 _3_ RTR  --- 0 AODV 48 [0 ffffffff 6 800] ------- [3:255 -1:255 29 0] [0x2 2 9 [11 0] [6 20]] (REQUEST)
s 0.112005985 _1_ RTR  --- 0 AODV 48 [0 ffffffff 6 800] ------- [1:255 -1:255 29 0] [0x2 2 5 [7 0] [6 12]] (REQUEST)
s 0.112086567 _7_ RTR  --- 0 AODV 48 [0 ffffffff 6 800] ------- [7:255 -1:255 29 0] [0x2 2 10 [0 0] [6 22]] (REQUEST)
s 0.112255633 _2_ RTR  --- 0 AODV 48 [0 ffffffff 6 800] ------- [2:255 -1:255 29 0] [0x2 2 5 [7 0] [6 12]] (REQUEST)
s 0.112272976 _7_ RTR  --- 0 AODV 48 [0 ffffffff 6 800] ------- [7:255 -1:255 29 0] [0x2 2 9 [11 0] [6 20]] (REQUEST)
s 0.112381667 _12_ RTR  --- 0 AODV 48 [0 ffffffff 6 800] ------- [12:255 -1:255 29 0] [0x2 2 6 [8 0] [6 14]] (REQUEST)
s 0.112449550 _10_ RTR  --- 0 AODV 48 [0 ffffffff 6 800] ------- [10:255 -1:255 29 0] [0x2 2 6 [8 0] [6 14]] (REQUEST)
s 0.112476473 _7_ RTR  --- 0 AODV 48 [0 ffffffff 6 800] ------- [7:255 -1:255 29 0] [0x2 2 6 [8 0] [6 14]] (REQUEST)
r 0.112544450 _10_ MAC  --- 0 AODV 48 [0 ffffffff b 800] ------- [11:255 -1:255 29 0] [0x2 2 1 [1 0] [6 4]] (REQUEST)
r 0.112544450 _7_ MAC  --- 0 AODV 48 [0 ffffffff b 800] ------- [11:255 -1:255 29 0] [0x2 2 1 [1 0] [6 4]] (REQUEST)
r 0.112544657 _6_ MAC  --- 0 AODV 48 [0 ffffffff b 800] ------- [11:255 -1:255 29 0] [0x2 2 1 [1 0] [6 4]] (REQUEST)
r 0.112544740 _12_ MAC  --- 0 AODV 48 [0 ffffffff b 800] ------- [11:255 -1:255 29 0] [0x2 2 1 [1 0] [6 4]] (REQUEST)
r 0.112569450 _10_ RTR  --- 0 AODV 48 [0 ffffffff b 800] ------- [11:255 -1:255 29 0] [0x2 2 1 [1 0] [6 4]] (REQUEST)
r 0.112569450 _7_ RTR  --- 0 AODV 48 [0 ffffffff b 800] ------- [11:255 -1:255 29 0] [0x2 2 1 [1 0] [6 4]] (REQUEST)
r 0.112569657 _6_ RTR  --- 0 AODV 48 [0 ffffffff b 800] ------- [11:255 -1:255 29 0] [0x2 2 1 [1 0] [6 4]] (REQUEST)
r 0.112569740 _12_ RTR  --- 0 AODV 48 [0 ffffffff b 800] ------- [11:255 -1:255 29 0] [0x2 2 1 [1 0] [6 4]] (REQUEST)